
     Program PWSCF v.6.1 starts on 10Jan2024 at  2:28:55 

     This program is part of the open-source Quantum ESPRESSO suite
     for quantum simulation of materials; please cite
         "P. Giannozzi et al., J. Phys.:Condens. Matter 21 395502 (2009);
          URL http://www.quantum-espresso.org", 
     in publications or presentations arising from this work. More details at
     http://www.quantum-espresso.org/quote

     Parallel version (MPI & OpenMP), running on      50 processor cores
     Number of MPI processes:                 5
     Threads/MPI process:                    10
     R & G space division:  proc/nbgrp/npool/nimage =       5
     Reading input from espresso.in
Warning: card &BANDS ignored
Warning: card     FILBAND        = "ESPRESSO.BAND1" ignored
Warning: card     LSYM           = .FALSE. ignored
Warning: card     OUTDIR         = "./" ignored
Warning: card     PREFIX         = "ESPRESSO" ignored
Warning: card     SPIN_COMPONENT = 1 ignored
Warning: card / ignored

     Current dimensions of program PWSCF are:
     Max number of different atomic species (ntypx) = 10
     Max number of k-points (npk) =  40000
     Max angular momentum in pseudopotentials (lmaxx) =  3
     Message from routine iosys:
     wrong startingpot: use default (2)

     Atomic positions and unit cell read from directory:
     ./espresso.save/

               file Fe.pz-spn-kjpaw_psl.0.2.1.UPF: wavefunction(s)  3D renormalized
               file Fe.pz-spn-kjpaw_psl.0.2.1.UPF: wavefunction(s)  3D renormalized
               file Fe.pz-spn-kjpaw_psl.0.2.1.UPF: wavefunction(s)  3D renormalized
               file Fe.pz-spn-kjpaw_psl.0.2.1.UPF: wavefunction(s)  3D renormalized
               file O.pz-n-kjpaw_psl.0.1.UPF: wavefunction(s)  2P renormalized

     Subspace diagonalization in iterative solution of the eigenvalue problem:
     a serial algorithm will be used


     Parallelization info
     --------------------
     sticks:   dense  smooth     PW     G-vecs:    dense   smooth      PW
     Min         216      95     33                 6525     1940     396
     Max         218      96     33                 6525     1942     397
     Sum        1085     479    165                32625     9705    1983



     bravais-lattice index     =            0
     lattice parameter (alat)  =      10.1022  a.u.
     unit-cell volume          =     573.5565 (a.u.)^3
     number of atoms/cell      =            8
     number of atomic types    =            5
     number of electrons       =        88.00
     number of Kohn-Sham states=           68
     kinetic-energy cutoff     =      25.0000  Ry
     charge density cutoff     =     225.0000  Ry
     Exchange-correlation      =  SLA  PZ   NOGX NOGC ( 1  1  0  0 0 0)

     celldm(1)=  10.102230  celldm(2)=   0.590841  celldm(3)=   0.994962
     celldm(4)=   0.000000  celldm(5)=  -0.323174  celldm(6)=   0.000000

     crystal axes: (cart. coord. in units of alat)
               a(1) = (   1.000000   0.000000   0.000000 )  
               a(2) = (   0.000000   0.590841   0.000000 )  
               a(3) = (  -0.321546   0.000000   0.941572 )  

     reciprocal axes: (cart. coord. in units 2 pi/alat)
               b(1) = (  1.000000 -0.000000  0.341499 )  
               b(2) = (  0.000000  1.692502 -0.000000 )  
               b(3) = (  0.000000  0.000000  1.062053 )  


     PseudoPot. # 1 for Fe read from file:
     C:\Users\didar\.burai\.pseudopot/Fe.pz-spn-kjpaw_psl.0.2.1.UPF
     MD5 check sum: 807bdef9fce1f7856b34b8edf4aa6c35
     Pseudo is Projector augmented-wave + core cor, Zval = 16.0
     Generated using "atomic" code by A. Dal Corso  v.5.0.99 svn rev. 10869
     Shape of augmentation charge: PSQ
     Using radial grid of 1191 points,  6 beta functions with: 
                l(1) =   0
                l(2) =   0
                l(3) =   1
                l(4) =   1
                l(5) =   2
                l(6) =   2
     Q(r) pseudized with 0 coefficients 


     PseudoPot. # 2 for Fe read from file:
     C:\Users\didar\.burai\.pseudopot/Fe.pz-spn-kjpaw_psl.0.2.1.UPF
     MD5 check sum: 807bdef9fce1f7856b34b8edf4aa6c35
     Pseudo is Projector augmented-wave + core cor, Zval = 16.0
     Generated using "atomic" code by A. Dal Corso  v.5.0.99 svn rev. 10869
     Shape of augmentation charge: PSQ
     Using radial grid of 1191 points,  6 beta functions with: 
                l(1) =   0
                l(2) =   0
                l(3) =   1
                l(4) =   1
                l(5) =   2
                l(6) =   2
     Q(r) pseudized with 0 coefficients 


     PseudoPot. # 3 for Fe read from file:
     C:\Users\didar\.burai\.pseudopot/Fe.pz-spn-kjpaw_psl.0.2.1.UPF
     MD5 check sum: 807bdef9fce1f7856b34b8edf4aa6c35
     Pseudo is Projector augmented-wave + core cor, Zval = 16.0
     Generated using "atomic" code by A. Dal Corso  v.5.0.99 svn rev. 10869
     Shape of augmentation charge: PSQ
     Using radial grid of 1191 points,  6 beta functions with: 
                l(1) =   0
                l(2) =   0
                l(3) =   1
                l(4) =   1
                l(5) =   2
                l(6) =   2
     Q(r) pseudized with 0 coefficients 


     PseudoPot. # 4 for Fe read from file:
     C:\Users\didar\.burai\.pseudopot/Fe.pz-spn-kjpaw_psl.0.2.1.UPF
     MD5 check sum: 807bdef9fce1f7856b34b8edf4aa6c35
     Pseudo is Projector augmented-wave + core cor, Zval = 16.0
     Generated using "atomic" code by A. Dal Corso  v.5.0.99 svn rev. 10869
     Shape of augmentation charge: PSQ
     Using radial grid of 1191 points,  6 beta functions with: 
                l(1) =   0
                l(2) =   0
                l(3) =   1
                l(4) =   1
                l(5) =   2
                l(6) =   2
     Q(r) pseudized with 0 coefficients 


     PseudoPot. # 5 for  O read from file:
     C:\Users\didar\.burai\.pseudopot/O.pz-n-kjpaw_psl.0.1.UPF
     MD5 check sum: 914e026d28643bae2a0dd90dfe714ed6
     Pseudo is Projector augmented-wave + core cor, Zval =  6.0
     Generated using "atomic" code by A. Dal Corso  v.5.0.99 svn rev. 10869
     Shape of augmentation charge: BESSEL
     Using radial grid of 1095 points,  4 beta functions with: 
                l(1) =   0
                l(2) =   0
                l(3) =   1
                l(4) =   1
     Q(r) pseudized with 0 coefficients 


     atomic species   valence    mass     pseudopotential
        Fe            16.00    55.84500     Fe( 1.00)
        Fe3           16.00    55.84500     Fe( 1.00)
        Fe4           16.00    55.84500     Fe( 1.00)
        Fe5           16.00    55.84500     Fe( 1.00)
        O              6.00    15.99940      O( 1.00)

     Starting magnetic structure 
     atomic species   magnetization
        Fe           0.200
        Fe3          0.000
        Fe4          0.000
        Fe5          0.000
        O            0.000


     Simplified LDA+U calculation (l_max = 2) with parameters (eV):
     atomic species    L          U    alpha       J0     beta
        Fe             2     5.8739   0.0000   0.0000   0.0000
        Fe3            2     5.7263   0.0000   0.0000   0.0000
        Fe4            2     5.8957   0.0000   0.0000   0.0000
        Fe5            2     5.8588   0.0000   0.0000   0.0000



      4 Sym. Ops., with inversion, found


                                    s                        frac. trans.

      isym =  1     identity                                     

 cryst.   s( 1) = (     1          0          0      )
                  (     0          1          0      )
                  (     0          0          1      )

 cart.    s( 1) = (  1.0000000  0.0000000  0.0000000 )
                  (  0.0000000  1.0000000  0.0000000 )
                  (  0.0000000  0.0000000  1.0000000 )


      isym =  2     180 deg rotation - cart. axis [0,1,0]        

 cryst.   s( 2) = (    -1          0          0      )
                  (     0          1          0      )
                  (     0          0         -1      )

 cart.    s( 2) = ( -1.0000000  0.0000000  0.0000000 )
                  (  0.0000000  1.0000000  0.0000000 )
                  (  0.0000000  0.0000000 -1.0000000 )


      isym =  3     inversion                                    

 cryst.   s( 3) = (    -1          0          0      )
                  (     0         -1          0      )
                  (     0          0         -1      )

 cart.    s( 3) = ( -1.0000000  0.0000000  0.0000000 )
                  (  0.0000000 -1.0000000  0.0000000 )
                  (  0.0000000  0.0000000 -1.0000000 )


      isym =  4     inv. 180 deg rotation - cart. axis [0,1,0]   

 cryst.   s( 4) = (     1          0          0      )
                  (     0         -1          0      )
                  (     0          0          1      )

 cart.    s( 4) = (  1.0000000  0.0000000  0.0000000 )
                  (  0.0000000 -1.0000000  0.0000000 )
                  (  0.0000000  0.0000000  1.0000000 )


   Cartesian axes

     site n.     atom                  positions (alat units)
         1           Fe  tau(   1) = (   0.0000000   0.0000000   0.0000000  )
         2           Fe3 tau(   2) = (   0.3392292   0.0000000   0.4707874  )
         3           Fe4 tau(   3) = (   0.4999998   0.2954206   0.0000000  )
         4           Fe5 tau(   4) = (  -0.1607707   0.2954206   0.4707874  )
         5           O   tau(   5) = (   0.6897287   0.0000000   0.2369702  )
         6           O   tau(   6) = (  -0.0112704   0.0000000   0.7046043  )
         7           O   tau(   7) = (   0.1897289   0.2954206   0.2369702  )
         8           O   tau(   8) = (   0.4887294   0.2954206   0.7046043  )

   Crystallographic axes

     site n.     atom                  positions (cryst. coord.)
         1           Fe  tau(   1) = (  0.0000000  0.0000000  0.0000000  )
         2           Fe3 tau(   2) = (  0.5000026  0.0000000  0.5000013  )
         3           Fe4 tau(   3) = (  0.4999998  0.5000000  0.0000000  )
         4           Fe5 tau(   4) = (  0.0000028  0.5000000  0.5000013  )
         5           O   tau(   5) = (  0.7706538  0.0000000  0.2516750  )
         6           O   tau(   6) = (  0.2293513  0.0000000  0.7483273  )
         7           O   tau(   7) = (  0.2706540  0.5000000  0.2516750  )
         8           O   tau(   8) = (  0.7293511  0.5000000  0.7483273  )

     number of k points=    89  Marzari-Vanderbilt smearing, width (Ry)=  0.0100
                       cart. coord. in units 2pi/alat
        k(    1) = (   0.0000000   0.0000000   0.0000000), wk =   0.0112360
        k(    2) = (   0.0333333   0.0564167   0.0113833), wk =   0.0112360
        k(    3) = (   0.0666667   0.1128335   0.0227666), wk =   0.0112360
        k(    4) = (   0.1000000   0.1692502   0.0341499), wk =   0.0112360
        k(    5) = (   0.1333333   0.2256670   0.0455332), wk =   0.0112360
        k(    6) = (   0.1666667   0.2820837   0.0569165), wk =   0.0112360
        k(    7) = (   0.2000000   0.3385005   0.0682998), wk =   0.0112360
        k(    8) = (   0.2333333   0.3949172   0.0796831), wk =   0.0112360
        k(    9) = (   0.2666667   0.4513339   0.0910664), wk =   0.0112360
        k(   10) = (   0.3000000   0.5077507   0.1024497), wk =   0.0112360
        k(   11) = (   0.3333333   0.5641674   0.1138330), wk =   0.0112360
        k(   12) = (   0.3666667   0.6205842   0.1252163), wk =   0.0112360
        k(   13) = (   0.4000000   0.6770009   0.1365996), wk =   0.0112360
        k(   14) = (   0.4333333   0.7334177   0.1479829), wk =   0.0112360
        k(   15) = (   0.4666667   0.7898344   0.1593662), wk =   0.0112360
        k(   16) = (   0.5000000   0.8462511   0.1707495), wk =   0.0112360
        k(   17) = (   0.5000000   0.9066976   0.2086800), wk =   0.0112360
        k(   18) = (   0.5000000   0.9671442   0.2466104), wk =   0.0112360
        k(   19) = (   0.5000000   1.0275907   0.2845409), wk =   0.0112360
        k(   20) = (   0.5000000   1.0880372   0.3224714), wk =   0.0112360
        k(   21) = (   0.5000000   1.1484837   0.3604019), wk =   0.0112360
        k(   22) = (   0.5000000   1.2089302   0.3983323), wk =   0.0112360
        k(   23) = (   0.5000000   1.2693767   0.4362628), wk =   0.0112360
        k(   24) = (   0.4750000   1.2693767   0.4542767), wk =   0.0112360
        k(   25) = (   0.4500000   1.2693767   0.4722905), wk =   0.0112360
        k(   26) = (   0.4250000   1.2693767   0.4903044), wk =   0.0112360
        k(   27) = (   0.4000000   1.2693767   0.5083182), wk =   0.0112360
        k(   28) = (   0.3750000   1.2693767   0.5263321), wk =   0.0112360
        k(   29) = (   0.3500000   1.1847516   0.4912433), wk =   0.0112360
        k(   30) = (   0.3250000   1.1001265   0.4561545), wk =   0.0112360
        k(   31) = (   0.3000000   1.0155014   0.4210657), wk =   0.0112360
        k(   32) = (   0.2750000   0.9308763   0.3859769), wk =   0.0112360
        k(   33) = (   0.2500000   0.8462511   0.3508881), wk =   0.0112360
        k(   34) = (   0.2250000   0.7616260   0.3157993), wk =   0.0112360
        k(   35) = (   0.2000000   0.6770009   0.2807105), wk =   0.0112360
        k(   36) = (   0.1750000   0.5923758   0.2456216), wk =   0.0112360
        k(   37) = (   0.1500000   0.5077507   0.2105328), wk =   0.0112360
        k(   38) = (   0.1250000   0.4231256   0.1754440), wk =   0.0112360
        k(   39) = (   0.1000000   0.3385005   0.1403552), wk =   0.0112360
        k(   40) = (   0.0750000   0.2538753   0.1052664), wk =   0.0112360
        k(   41) = (   0.0500000   0.1692502   0.0701776), wk =   0.0112360
        k(   42) = (   0.0250000   0.0846251   0.0350888), wk =   0.0112360
        k(   43) = (   0.0000000   0.0000000   0.0000000), wk =   0.0112360
        k(   44) = (   0.0384615   0.0650962   0.0539828), wk =   0.0112360
        k(   45) = (   0.0769231   0.1301925   0.1079656), wk =   0.0112360
        k(   46) = (   0.1153846   0.1952887   0.1619483), wk =   0.0112360
        k(   47) = (   0.1538462   0.2603850   0.2159311), wk =   0.0112360
        k(   48) = (   0.1923077   0.3254812   0.2699139), wk =   0.0112360
        k(   49) = (   0.2307692   0.3905774   0.3238967), wk =   0.0112360
        k(   50) = (   0.2692308   0.4556737   0.3778795), wk =   0.0112360
        k(   51) = (   0.3076923   0.5207699   0.4318622), wk =   0.0112360
        k(   52) = (   0.3461538   0.5858662   0.4858450), wk =   0.0112360
        k(   53) = (   0.3846154   0.6509624   0.5398278), wk =   0.0112360
        k(   54) = (   0.4230769   0.7160587   0.5938106), wk =   0.0112360
        k(   55) = (   0.4615385   0.7811549   0.6477934), wk =   0.0112360
        k(   56) = (   0.5000000   0.8462511   0.7017761), wk =   0.0112360
        k(   57) = (   0.5138889   0.8697581   0.6770177), wk =   0.0112360
        k(   58) = (   0.5277778   0.8932651   0.6522593), wk =   0.0112360
        k(   59) = (   0.5416667   0.9167721   0.6275008), wk =   0.0112360
        k(   60) = (   0.5555556   0.9402790   0.6027424), wk =   0.0112360
        k(   61) = (   0.5694444   0.9637860   0.5779839), wk =   0.0112360
        k(   62) = (   0.5833333   0.9872930   0.5532255), wk =   0.0112360
        k(   63) = (   0.5972222   1.0108000   0.5284671), wk =   0.0112360
        k(   64) = (   0.6111111   1.0343069   0.5037086), wk =   0.0112360
        k(   65) = (   0.6250000   1.0578139   0.4789502), wk =   0.0112360
        k(   66) = (   0.6000000   1.1001265   0.4704127), wk =   0.0112360
        k(   67) = (   0.5750000   1.1424390   0.4618752), wk =   0.0112360
        k(   68) = (   0.5500000   1.1847516   0.4533378), wk =   0.0112360
        k(   69) = (   0.5250000   1.2270642   0.4448003), wk =   0.0112360
        k(   70) = (   0.5000000   1.2693767   0.4362628), wk =   0.0112360
        k(   71) = (   0.5000000   1.2270642   0.4628141), wk =   0.0112360
        k(   72) = (   0.5000000   1.1847516   0.4893655), wk =   0.0112360
        k(   73) = (   0.5000000   1.1424390   0.5159168), wk =   0.0112360
        k(   74) = (   0.5000000   1.1001265   0.5424681), wk =   0.0112360
        k(   75) = (   0.5000000   1.0578139   0.5690195), wk =   0.0112360
        k(   76) = (   0.5000000   1.0155014   0.5955708), wk =   0.0112360
        k(   77) = (   0.5000000   0.9731888   0.6221221), wk =   0.0112360
        k(   78) = (   0.5000000   0.9308763   0.6486735), wk =   0.0112360
        k(   79) = (   0.5000000   0.8885637   0.6752248), wk =   0.0112360
        k(   80) = (   0.5000000   0.8462511   0.7017761), wk =   0.0112360
        k(   81) = (   0.4861111   0.8932651   0.6822824), wk =   0.0112360
        k(   82) = (   0.4722222   0.9402790   0.6627886), wk =   0.0112360
        k(   83) = (   0.4583333   0.9872930   0.6432948), wk =   0.0112360
        k(   84) = (   0.4444444   1.0343069   0.6238010), wk =   0.0112360
        k(   85) = (   0.4305556   1.0813209   0.6043072), wk =   0.0112360
        k(   86) = (   0.4166667   1.1283349   0.5848134), wk =   0.0112360
        k(   87) = (   0.4027778   1.1753488   0.5653197), wk =   0.0112360
        k(   88) = (   0.3888889   1.2223628   0.5458259), wk =   0.0112360
        k(   89) = (   0.3750000   1.2693767   0.5263321), wk =   0.0112360

                       cryst. coord.
        k(    1) = (   0.0000000   0.0000000   0.0000000), wk =   0.0112360
        k(    2) = (   0.0333333   0.0333333  -0.0000000), wk =   0.0112360
        k(    3) = (   0.0666667   0.0666667  -0.0000000), wk =   0.0112360
        k(    4) = (   0.1000000   0.1000000   0.0000000), wk =   0.0112360
        k(    5) = (   0.1333333   0.1333333  -0.0000000), wk =   0.0112360
        k(    6) = (   0.1666667   0.1666667   0.0000000), wk =   0.0112360
        k(    7) = (   0.2000000   0.2000000   0.0000000), wk =   0.0112360
        k(    8) = (   0.2333333   0.2333333   0.0000000), wk =   0.0112360
        k(    9) = (   0.2666667   0.2666667  -0.0000000), wk =   0.0112360
        k(   10) = (   0.3000000   0.3000000   0.0000000), wk =   0.0112360
        k(   11) = (   0.3333333   0.3333333   0.0000000), wk =   0.0112360
        k(   12) = (   0.3666667   0.3666667   0.0000000), wk =   0.0112360
        k(   13) = (   0.4000000   0.4000000   0.0000000), wk =   0.0112360
        k(   14) = (   0.4333333   0.4333333  -0.0000000), wk =   0.0112360
        k(   15) = (   0.4666667   0.4666667   0.0000000), wk =   0.0112360
        k(   16) = (   0.5000000   0.5000000   0.0000000), wk =   0.0112360
        k(   17) = (   0.5000000   0.5357143   0.0357143), wk =   0.0112360
        k(   18) = (   0.5000000   0.5714286   0.0714286), wk =   0.0112360
        k(   19) = (   0.5000000   0.6071429   0.1071429), wk =   0.0112360
        k(   20) = (   0.5000000   0.6428571   0.1428571), wk =   0.0112360
        k(   21) = (   0.5000000   0.6785714   0.1785714), wk =   0.0112360
        k(   22) = (   0.5000000   0.7142857   0.2142857), wk =   0.0112360
        k(   23) = (   0.5000000   0.7500000   0.2500000), wk =   0.0112360
        k(   24) = (   0.4750000   0.7500000   0.2750000), wk =   0.0112360
        k(   25) = (   0.4500000   0.7500000   0.3000000), wk =   0.0112360
        k(   26) = (   0.4250000   0.7500000   0.3250000), wk =   0.0112360
        k(   27) = (   0.4000000   0.7500000   0.3500000), wk =   0.0112360
        k(   28) = (   0.3750000   0.7500000   0.3750000), wk =   0.0112360
        k(   29) = (   0.3500000   0.7000000   0.3500000), wk =   0.0112360
        k(   30) = (   0.3250000   0.6500000   0.3250000), wk =   0.0112360
        k(   31) = (   0.3000000   0.6000000   0.3000000), wk =   0.0112360
        k(   32) = (   0.2750000   0.5500000   0.2750000), wk =   0.0112360
        k(   33) = (   0.2500000   0.5000000   0.2500000), wk =   0.0112360
        k(   34) = (   0.2250000   0.4500000   0.2250000), wk =   0.0112360
        k(   35) = (   0.2000000   0.4000000   0.2000000), wk =   0.0112360
        k(   36) = (   0.1750000   0.3500000   0.1750000), wk =   0.0112360
        k(   37) = (   0.1500000   0.3000000   0.1500000), wk =   0.0112360
        k(   38) = (   0.1250000   0.2500000   0.1250000), wk =   0.0112360
        k(   39) = (   0.1000000   0.2000000   0.1000000), wk =   0.0112360
        k(   40) = (   0.0750000   0.1500000   0.0750000), wk =   0.0112360
        k(   41) = (   0.0500000   0.1000000   0.0500000), wk =   0.0112360
        k(   42) = (   0.0250000   0.0500000   0.0250000), wk =   0.0112360
        k(   43) = (   0.0000000   0.0000000   0.0000000), wk =   0.0112360
        k(   44) = (   0.0384615   0.0384615   0.0384615), wk =   0.0112360
        k(   45) = (   0.0769231   0.0769231   0.0769231), wk =   0.0112360
        k(   46) = (   0.1153846   0.1153846   0.1153846), wk =   0.0112360
        k(   47) = (   0.1538462   0.1538462   0.1538462), wk =   0.0112360
        k(   48) = (   0.1923077   0.1923077   0.1923077), wk =   0.0112360
        k(   49) = (   0.2307692   0.2307692   0.2307692), wk =   0.0112360
        k(   50) = (   0.2692308   0.2692308   0.2692308), wk =   0.0112360
        k(   51) = (   0.3076923   0.3076923   0.3076923), wk =   0.0112360
        k(   52) = (   0.3461538   0.3461538   0.3461538), wk =   0.0112360
        k(   53) = (   0.3846154   0.3846154   0.3846154), wk =   0.0112360
        k(   54) = (   0.4230769   0.4230769   0.4230769), wk =   0.0112360
        k(   55) = (   0.4615385   0.4615385   0.4615385), wk =   0.0112360
        k(   56) = (   0.5000000   0.5000000   0.5000000), wk =   0.0112360
        k(   57) = (   0.5138889   0.5138889   0.4722222), wk =   0.0112360
        k(   58) = (   0.5277778   0.5277778   0.4444444), wk =   0.0112360
        k(   59) = (   0.5416667   0.5416667   0.4166667), wk =   0.0112360
        k(   60) = (   0.5555556   0.5555556   0.3888889), wk =   0.0112360
        k(   61) = (   0.5694444   0.5694444   0.3611111), wk =   0.0112360
        k(   62) = (   0.5833333   0.5833333   0.3333333), wk =   0.0112360
        k(   63) = (   0.5972222   0.5972222   0.3055556), wk =   0.0112360
        k(   64) = (   0.6111111   0.6111111   0.2777778), wk =   0.0112360
        k(   65) = (   0.6250000   0.6250000   0.2500000), wk =   0.0112360
        k(   66) = (   0.6000000   0.6500000   0.2500000), wk =   0.0112360
        k(   67) = (   0.5750000   0.6750000   0.2500000), wk =   0.0112360
        k(   68) = (   0.5500000   0.7000000   0.2500000), wk =   0.0112360
        k(   69) = (   0.5250000   0.7250000   0.2500000), wk =   0.0112360
        k(   70) = (   0.5000000   0.7500000   0.2500000), wk =   0.0112360
        k(   71) = (   0.5000000   0.7250000   0.2750000), wk =   0.0112360
        k(   72) = (   0.5000000   0.7000000   0.3000000), wk =   0.0112360
        k(   73) = (   0.5000000   0.6750000   0.3250000), wk =   0.0112360
        k(   74) = (   0.5000000   0.6500000   0.3500000), wk =   0.0112360
        k(   75) = (   0.5000000   0.6250000   0.3750000), wk =   0.0112360
        k(   76) = (   0.5000000   0.6000000   0.4000000), wk =   0.0112360
        k(   77) = (   0.5000000   0.5750000   0.4250000), wk =   0.0112360
        k(   78) = (   0.5000000   0.5500000   0.4500000), wk =   0.0112360
        k(   79) = (   0.5000000   0.5250000   0.4750000), wk =   0.0112360
        k(   80) = (   0.5000000   0.5000000   0.5000000), wk =   0.0112360
        k(   81) = (   0.4861111   0.5277778   0.4861111), wk =   0.0112360
        k(   82) = (   0.4722222   0.5555556   0.4722222), wk =   0.0112360
        k(   83) = (   0.4583333   0.5833333   0.4583333), wk =   0.0112360
        k(   84) = (   0.4444444   0.6111111   0.4444444), wk =   0.0112360
        k(   85) = (   0.4305556   0.6388889   0.4305556), wk =   0.0112360
        k(   86) = (   0.4166667   0.6666667   0.4166667), wk =   0.0112360
        k(   87) = (   0.4027778   0.6944444   0.4027778), wk =   0.0112360
        k(   88) = (   0.3888889   0.7222222   0.3888889), wk =   0.0112360
        k(   89) = (   0.3750000   0.7500000   0.3750000), wk =   0.0112360

     Dense  grid:    32625 G-vectors     FFT dimensions: (  50,  30,  48)

     Smooth grid:     9705 G-vectors     FFT dimensions: (  36,  20,  32)

     Estimated max dynamical RAM per process >       8.04MB

     Estimated total allocated dynamical RAM >      40.20MB
     Generating pointlists ...
     new r_m :   0.1610 (alat units)  1.6269 (a.u.) for type    1
     new r_m :   0.1672 (alat units)  1.6891 (a.u.) for type    2
     new r_m :   0.1610 (alat units)  1.6269 (a.u.) for type    3
     new r_m :   0.1672 (alat units)  1.6891 (a.u.) for type    4
     new r_m :   0.1610 (alat units)  1.6269 (a.u.) for type    5

     Check: negative/imaginary core charge=   -0.000220    0.000000

     The potential is recalculated from file :
     ./espresso.save/charge-density.dat


     negative rho (up, down):  0.000E+00 9.520E-04
 --- in v_hubbard ---
Hubbard energy    0.5993
 -------
     Number of +U iterations with fixed ns =  0
     Starting occupations:
 --- enter write_ns ---
 LDA+U parameters:
U( 1)     =  5.87390000
alpha( 1) =  0.00000000
U( 2)     =  5.72630000
alpha( 2) =  0.00000000
U( 3)     =  5.89570000
alpha( 3) =  0.00000000
U( 4)     =  5.85880000
alpha( 4) =  0.00000000
atom    1   Tr[ns(na)] (up, down, total) =   4.96707  1.53120  6.49826
   spin  1
    eigenvalues: 
  0.989  0.992  0.995  0.995  0.996
    eigenvectors:
  0.006  0.000  0.676  0.000  0.318
  0.704  0.000  0.063  0.000  0.232
  0.000  0.591  0.000  0.409  0.000
  0.290  0.000  0.261  0.000  0.450
  0.000  0.409  0.000  0.591  0.000
    occupations:
  0.995 -0.000 -0.000 -0.000  0.000
 -0.000  0.991 -0.000 -0.003  0.000
 -0.000 -0.000  0.993  0.000  0.002
 -0.000 -0.003  0.000  0.994 -0.000
  0.000  0.000  0.002 -0.000  0.994
   spin  2
    eigenvalues: 
  0.066  0.067  0.149  0.257  0.993
    eigenvectors:
  0.610  0.000  0.000  0.001  0.388
  0.102  0.000  0.000  0.698  0.200
  0.000  0.397  0.603  0.000  0.000
  0.288  0.000  0.000  0.301  0.411
  0.000  0.603  0.397  0.000  0.000
    occupations:
  0.426 -0.253  0.000  0.374 -0.000
 -0.253  0.385 -0.000 -0.179  0.000
  0.000 -0.000  0.116  0.000 -0.040
  0.374 -0.179  0.000  0.505 -0.000
 -0.000  0.000 -0.040 -0.000  0.099
atomic mag. moment =     3.435868
atom    2   Tr[ns(na)] (up, down, total) =   3.55958  3.40519  6.96477
   spin  1
    eigenvalues: 
  0.258  0.323  0.993  0.993  0.993
    eigenvectors:
  0.001  0.000  0.909  0.090  0.000
  0.623  0.000  0.041  0.336  0.000
  0.000  0.692  0.000  0.000  0.308
  0.376  0.000  0.050  0.574  0.000
  0.000  0.308  0.000  0.000  0.692
    occupations:
  0.992  0.014  0.000  0.011  0.000
  0.014  0.535 -0.000 -0.356  0.000
  0.000 -0.000  0.529  0.000  0.309
  0.011 -0.356  0.000  0.716 -0.000
  0.000  0.000  0.309 -0.000  0.787
   spin  2
    eigenvalues: 
  0.188  0.239  0.992  0.993  0.994
    eigenvectors:
  0.001  0.000  0.689  0.000  0.310
  0.621  0.000  0.132  0.000  0.247
  0.000  0.703  0.000  0.297  0.000
  0.378  0.000  0.179  0.000  0.443
  0.000  0.297  0.000  0.703  0.000
    occupations:
  0.992  0.020  0.000  0.016  0.000
  0.020  0.493 -0.000 -0.390  0.000
  0.000 -0.000  0.462  0.000  0.344
  0.016 -0.390  0.000  0.689 -0.000
  0.000  0.000  0.344 -0.000  0.769
atomic mag. moment =     0.154394
atom    3   Tr[ns(na)] (up, down, total) =   3.45761  3.45856  6.91618
   spin  1
    eigenvalues: 
  0.193  0.283  0.993  0.994  0.994
    eigenvectors:
  0.000  0.001  0.661  0.000  0.338
  0.000  0.689  0.090  0.000  0.220
  0.630  0.000  0.000  0.370  0.000
  0.000  0.309  0.248  0.000  0.442
  0.370  0.000  0.000  0.630  0.000
    occupations:
  0.993 -0.020  0.000 -0.013  0.000
 -0.020  0.504 -0.000 -0.328  0.000
  0.000 -0.000  0.490  0.000  0.386
 -0.013 -0.328  0.000  0.774 -0.000
  0.000  0.000  0.386 -0.000  0.698
   spin  2
    eigenvalues: 
  0.191  0.288  0.993  0.993  0.994
    eigenvectors:
  0.000  0.003  0.720  0.000  0.278
  0.000  0.696  0.065  0.000  0.240
  0.643  0.000  0.000  0.357  0.000
  0.000  0.302  0.215  0.000  0.483
  0.357  0.000  0.000  0.643  0.000
    occupations:
  0.991 -0.030  0.000 -0.019  0.000
 -0.030  0.503 -0.000 -0.324  0.000
  0.000 -0.000  0.478  0.000  0.384
 -0.019 -0.324  0.000  0.781 -0.000
  0.000  0.000  0.384 -0.000  0.707
atomic mag. moment =    -0.000949
atom    4   Tr[ns(na)] (up, down, total) =   3.46578  3.45852  6.92430
   spin  1
    eigenvalues: 
  0.224  0.260  0.993  0.994  0.995
    eigenvectors:
  0.001  0.000  0.488  0.511  0.000
  0.627  0.000  0.176  0.197  0.000
  0.000  0.713  0.000  0.000  0.287
  0.372  0.000  0.336  0.292  0.000
  0.000  0.287  0.000  0.000  0.713
    occupations:
  0.993  0.019  0.000  0.014  0.000
  0.019  0.511 -0.000 -0.372  0.000
  0.000 -0.000  0.471  0.000  0.333
  0.014 -0.372  0.000  0.708 -0.000
  0.000  0.000  0.333 -0.000  0.784
   spin  2
    eigenvalues: 
  0.227  0.253  0.993  0.993  0.993
    eigenvectors:
  0.001  0.000  0.760  0.000  0.239
  0.618  0.000  0.107  0.000  0.275
  0.000  0.682  0.000  0.318  0.000
  0.381  0.000  0.133  0.000  0.486
  0.000  0.318  0.000  0.682  0.000
    occupations:
  0.992  0.021  0.000  0.017  0.000
  0.021  0.519 -0.000 -0.372  0.000
  0.000 -0.000  0.488  0.000  0.345
  0.017 -0.372  0.000  0.701 -0.000
  0.000  0.000  0.345 -0.000  0.758
atomic mag. moment =     0.007254
N of occupied +U levels =   27.303513
 --- exit write_ns ---
 Atomic wfc used for LDA+U Projector are orthogonalized
     Starting wfc are   68 randomized atomic wfcs
     Checking if some PAW data can be deallocated... 
       node    0, deallocated PAW data for type:  3
       node    0, deallocated PAW data for type:  4
       node    0, deallocated PAW data for type:  5
       node    1, deallocated PAW data for type:  1
       node    1, deallocated PAW data for type:  2
       node    1, deallocated PAW data for type:  5
       node    2, deallocated PAW data for type:  1
       node    2, deallocated PAW data for type:  2
       node    2, deallocated PAW data for type:  3
       node    2, deallocated PAW data for type:  4
       node    3, deallocated PAW data for type:  1
       node    3, deallocated PAW data for type:  2
       node    3, deallocated PAW data for type:  3
       node    3, deallocated PAW data for type:  4
       node    4, deallocated PAW data for type:  1
       node    4, deallocated PAW data for type:  2
       node    4, deallocated PAW data for type:  3
       node    4, deallocated PAW data for type:  4

     Band Structure Calculation
     Davidson diagonalization with overlap

     Computing kpt #:     1
     total cpu time spent up to now is        8.7 secs

     Computing kpt #:     2
     total cpu time spent up to now is       10.2 secs

     Computing kpt #:     3
     total cpu time spent up to now is       11.7 secs

     Computing kpt #:     4
     total cpu time spent up to now is       13.3 secs

     Computing kpt #:     5
     total cpu time spent up to now is       14.9 secs

     Computing kpt #:     6
     total cpu time spent up to now is       16.4 secs

     Computing kpt #:     7
     total cpu time spent up to now is       17.8 secs

     Computing kpt #:     8
     total cpu time spent up to now is       19.2 secs

     Computing kpt #:     9
     total cpu time spent up to now is       20.7 secs

     Computing kpt #:    10
     total cpu time spent up to now is       22.1 secs

     Computing kpt #:    11
     total cpu time spent up to now is       23.5 secs

     Computing kpt #:    12
     total cpu time spent up to now is       25.0 secs

     Computing kpt #:    13
     total cpu time spent up to now is       26.4 secs

     Computing kpt #:    14
     total cpu time spent up to now is       27.8 secs

     Computing kpt #:    15
     total cpu time spent up to now is       29.1 secs

     Computing kpt #:    16
     total cpu time spent up to now is       30.5 secs

     Computing kpt #:    17
     total cpu time spent up to now is       31.8 secs

     Computing kpt #:    18
     total cpu time spent up to now is       33.2 secs

     Computing kpt #:    19
     total cpu time spent up to now is       34.5 secs

     Computing kpt #:    20
     total cpu time spent up to now is       35.9 secs

     Computing kpt #:    21
     total cpu time spent up to now is       37.3 secs

     Computing kpt #:    22
     total cpu time spent up to now is       38.7 secs

     Computing kpt #:    23
     total cpu time spent up to now is       40.2 secs

     Computing kpt #:    24
     total cpu time spent up to now is       41.7 secs

     Computing kpt #:    25
     total cpu time spent up to now is       43.3 secs

     Computing kpt #:    26
     total cpu time spent up to now is       44.9 secs

     Computing kpt #:    27
     total cpu time spent up to now is       46.5 secs

     Computing kpt #:    28
     total cpu time spent up to now is       48.1 secs

     Computing kpt #:    29
     total cpu time spent up to now is       49.7 secs

     Computing kpt #:    30
     total cpu time spent up to now is       51.1 secs

     Computing kpt #:    31
     total cpu time spent up to now is       52.6 secs

     Computing kpt #:    32
     total cpu time spent up to now is       54.0 secs

     Computing kpt #:    33
     total cpu time spent up to now is       55.2 secs

     Computing kpt #:    34
     total cpu time spent up to now is       56.6 secs

     Computing kpt #:    35
     total cpu time spent up to now is       58.1 secs

     Computing kpt #:    36
     total cpu time spent up to now is       59.7 secs

     Computing kpt #:    37
     total cpu time spent up to now is       61.3 secs

     Computing kpt #:    38
     total cpu time spent up to now is       63.0 secs

     Computing kpt #:    39
     total cpu time spent up to now is       64.5 secs

     Computing kpt #:    40
     total cpu time spent up to now is       66.1 secs

     Computing kpt #:    41
     total cpu time spent up to now is       67.7 secs

     Computing kpt #:    42
     total cpu time spent up to now is       69.2 secs

     Computing kpt #:    43
     total cpu time spent up to now is       70.9 secs

     Computing kpt #:    44
     total cpu time spent up to now is       72.4 secs

     Computing kpt #:    45
     total cpu time spent up to now is       73.8 secs

     Computing kpt #:    46
     total cpu time spent up to now is       75.3 secs

     Computing kpt #:    47
     total cpu time spent up to now is       76.8 secs

     Computing kpt #:    48
     total cpu time spent up to now is       78.3 secs

     Computing kpt #:    49
     total cpu time spent up to now is       79.7 secs

     Computing kpt #:    50
     total cpu time spent up to now is       81.1 secs

     Computing kpt #:    51
     total cpu time spent up to now is       82.5 secs

     Computing kpt #:    52
     total cpu time spent up to now is       84.1 secs

     Computing kpt #:    53
     total cpu time spent up to now is       85.6 secs

     Computing kpt #:    54
     total cpu time spent up to now is       87.3 secs

     Computing kpt #:    55
     total cpu time spent up to now is       88.8 secs

     Computing kpt #:    56
     total cpu time spent up to now is       90.3 secs

     Computing kpt #:    57
     total cpu time spent up to now is       91.9 secs

     Computing kpt #:    58
     total cpu time spent up to now is       93.5 secs

     Computing kpt #:    59
     total cpu time spent up to now is       95.0 secs

     Computing kpt #:    60
     total cpu time spent up to now is       96.6 secs

     Computing kpt #:    61
     total cpu time spent up to now is       98.2 secs

     Computing kpt #:    62
     total cpu time spent up to now is       99.8 secs

     Computing kpt #:    63
     total cpu time spent up to now is      101.5 secs

     Computing kpt #:    64
     total cpu time spent up to now is      103.2 secs

     Computing kpt #:    65
     total cpu time spent up to now is      104.7 secs

     Computing kpt #:    66
     total cpu time spent up to now is      106.2 secs

     Computing kpt #:    67
     total cpu time spent up to now is      107.5 secs

     Computing kpt #:    68
     total cpu time spent up to now is      108.9 secs

     Computing kpt #:    69
     total cpu time spent up to now is      110.3 secs

     Computing kpt #:    70
     total cpu time spent up to now is      111.8 secs

     Computing kpt #:    71
     total cpu time spent up to now is      113.3 secs

     Computing kpt #:    72
     total cpu time spent up to now is      114.7 secs

     Computing kpt #:    73
     total cpu time spent up to now is      116.2 secs

     Computing kpt #:    74
     total cpu time spent up to now is      117.7 secs

     Computing kpt #:    75
     total cpu time spent up to now is      119.1 secs

     Computing kpt #:    76
     total cpu time spent up to now is      120.5 secs

     Computing kpt #:    77
     total cpu time spent up to now is      122.1 secs

     Computing kpt #:    78
     total cpu time spent up to now is      123.6 secs

     Computing kpt #:    79
     total cpu time spent up to now is      125.1 secs

     Computing kpt #:    80
     total cpu time spent up to now is      126.6 secs

     Computing kpt #:    81
     total cpu time spent up to now is      128.1 secs

     Computing kpt #:    82
     total cpu time spent up to now is      129.7 secs

     Computing kpt #:    83
     total cpu time spent up to now is      131.2 secs

     Computing kpt #:    84
     total cpu time spent up to now is      132.9 secs

     Computing kpt #:    85
     total cpu time spent up to now is      134.5 secs

     Computing kpt #:    86
     total cpu time spent up to now is      136.1 secs

     Computing kpt #:    87
     total cpu time spent up to now is      137.8 secs

     Computing kpt #:    88
     total cpu time spent up to now is      139.5 secs

     Computing kpt #:    89
     total cpu time spent up to now is      141.1 secs

     Computing kpt #:    90
     total cpu time spent up to now is      142.6 secs

     Computing kpt #:    91
     total cpu time spent up to now is      144.0 secs

     Computing kpt #:    92
     total cpu time spent up to now is      145.5 secs

     Computing kpt #:    93
     total cpu time spent up to now is      147.0 secs

     Computing kpt #:    94
     total cpu time spent up to now is      148.6 secs

     Computing kpt #:    95
     total cpu time spent up to now is      150.1 secs

     Computing kpt #:    96
     total cpu time spent up to now is      151.5 secs

     Computing kpt #:    97
     total cpu time spent up to now is      152.8 secs

     Computing kpt #:    98
     total cpu time spent up to now is      154.2 secs

     Computing kpt #:    99
     total cpu time spent up to now is      155.5 secs

     Computing kpt #:   100
     total cpu time spent up to now is      156.9 secs

     Computing kpt #:   101
     total cpu time spent up to now is      158.2 secs

     Computing kpt #:   102
     total cpu time spent up to now is      159.6 secs

     Computing kpt #:   103
     total cpu time spent up to now is      160.9 secs

     Computing kpt #:   104
     total cpu time spent up to now is      162.2 secs

     Computing kpt #:   105
     total cpu time spent up to now is      163.5 secs

     Computing kpt #:   106
     total cpu time spent up to now is      164.8 secs

     Computing kpt #:   107
     total cpu time spent up to now is      166.1 secs

     Computing kpt #:   108
     total cpu time spent up to now is      167.5 secs

     Computing kpt #:   109
     total cpu time spent up to now is      168.9 secs

     Computing kpt #:   110
     total cpu time spent up to now is      170.3 secs

     Computing kpt #:   111
     total cpu time spent up to now is      171.6 secs

     Computing kpt #:   112
     total cpu time spent up to now is      173.2 secs

     Computing kpt #:   113
     total cpu time spent up to now is      174.6 secs

     Computing kpt #:   114
     total cpu time spent up to now is      176.1 secs

     Computing kpt #:   115
     total cpu time spent up to now is      177.8 secs

     Computing kpt #:   116
     total cpu time spent up to now is      179.4 secs

     Computing kpt #:   117
     total cpu time spent up to now is      181.0 secs

     Computing kpt #:   118
     total cpu time spent up to now is      182.4 secs

     Computing kpt #:   119
     total cpu time spent up to now is      183.8 secs

     Computing kpt #:   120
     total cpu time spent up to now is      185.2 secs

     Computing kpt #:   121
     total cpu time spent up to now is      186.6 secs

     Computing kpt #:   122
     total cpu time spent up to now is      187.9 secs

     Computing kpt #:   123
     total cpu time spent up to now is      189.2 secs

     Computing kpt #:   124
     total cpu time spent up to now is      190.5 secs

     Computing kpt #:   125
     total cpu time spent up to now is      192.2 secs

     Computing kpt #:   126
     total cpu time spent up to now is      193.9 secs

     Computing kpt #:   127
     total cpu time spent up to now is      195.4 secs

     Computing kpt #:   128
     total cpu time spent up to now is      196.9 secs

     Computing kpt #:   129
     total cpu time spent up to now is      198.6 secs

     Computing kpt #:   130
     total cpu time spent up to now is      200.3 secs

     Computing kpt #:   131
     total cpu time spent up to now is      201.9 secs

     Computing kpt #:   132
     total cpu time spent up to now is      203.3 secs

     Computing kpt #:   133
     total cpu time spent up to now is      204.9 secs

     Computing kpt #:   134
     total cpu time spent up to now is      206.6 secs

     Computing kpt #:   135
     total cpu time spent up to now is      208.1 secs

     Computing kpt #:   136
     total cpu time spent up to now is      209.5 secs

     Computing kpt #:   137
     total cpu time spent up to now is      211.1 secs

     Computing kpt #:   138
     total cpu time spent up to now is      212.6 secs

     Computing kpt #:   139
     total cpu time spent up to now is      214.1 secs

     Computing kpt #:   140
     total cpu time spent up to now is      215.4 secs

     Computing kpt #:   141
     total cpu time spent up to now is      216.9 secs

     Computing kpt #:   142
     total cpu time spent up to now is      218.4 secs

     Computing kpt #:   143
     total cpu time spent up to now is      219.9 secs

     Computing kpt #:   144
     total cpu time spent up to now is      221.4 secs

     Computing kpt #:   145
     total cpu time spent up to now is      222.9 secs

     Computing kpt #:   146
     total cpu time spent up to now is      224.4 secs

     Computing kpt #:   147
     total cpu time spent up to now is      225.9 secs

     Computing kpt #:   148
     total cpu time spent up to now is      227.5 secs

     Computing kpt #:   149
     total cpu time spent up to now is      229.1 secs

     Computing kpt #:   150
     total cpu time spent up to now is      230.7 secs

     Computing kpt #:   151
     total cpu time spent up to now is      232.4 secs

     Computing kpt #:   152
     total cpu time spent up to now is      234.0 secs

     Computing kpt #:   153
     total cpu time spent up to now is      235.6 secs

     Computing kpt #:   154
     total cpu time spent up to now is      237.0 secs

     Computing kpt #:   155
     total cpu time spent up to now is      238.4 secs

     Computing kpt #:   156
     total cpu time spent up to now is      239.7 secs

     Computing kpt #:   157
     total cpu time spent up to now is      241.2 secs

     Computing kpt #:   158
     total cpu time spent up to now is      242.6 secs

     Computing kpt #:   159
     total cpu time spent up to now is      244.2 secs

     Computing kpt #:   160
     total cpu time spent up to now is      245.6 secs

     Computing kpt #:   161
     total cpu time spent up to now is      247.1 secs

     Computing kpt #:   162
     total cpu time spent up to now is      248.6 secs

     Computing kpt #:   163
     total cpu time spent up to now is      250.0 secs

     Computing kpt #:   164
     total cpu time spent up to now is      251.5 secs

     Computing kpt #:   165
     total cpu time spent up to now is      253.0 secs

     Computing kpt #:   166
     total cpu time spent up to now is      254.5 secs

     Computing kpt #:   167
     total cpu time spent up to now is      256.0 secs

     Computing kpt #:   168
     total cpu time spent up to now is      257.5 secs

     Computing kpt #:   169
     total cpu time spent up to now is      259.0 secs

     Computing kpt #:   170
     total cpu time spent up to now is      260.5 secs

     Computing kpt #:   171
     total cpu time spent up to now is      262.0 secs

     Computing kpt #:   172
     total cpu time spent up to now is      263.5 secs

     Computing kpt #:   173
     total cpu time spent up to now is      265.0 secs

     Computing kpt #:   174
     total cpu time spent up to now is      266.5 secs

     Computing kpt #:   175
     total cpu time spent up to now is      268.0 secs

     Computing kpt #:   176
     total cpu time spent up to now is      269.5 secs

     Computing kpt #:   177
     total cpu time spent up to now is      271.2 secs

     Computing kpt #:   178
     total cpu time spent up to now is      272.8 secs

     ethr =  1.14E-09,  avg # of iterations = 12.6

     total cpu time spent up to now is      272.8 secs

     End of band structure calculation

 ------ SPIN UP ------------


          k = 0.0000 0.0000 0.0000 (  1213 PWs)   bands (ev):

   -77.9860 -74.9259 -74.8812 -74.3482 -44.5502 -43.0532 -43.0372 -40.6954
   -40.6754 -40.5948 -40.5792 -40.5116 -40.4693 -40.1154 -40.0429 -39.9607
    -7.4215  -6.4233  -6.3950  -6.1099   3.0515   3.6544   4.0407   4.5573
     4.7299   5.5814   5.9132   6.6680   6.9909   7.2531   7.4731   7.8448
     8.1265   8.2150   8.2783   8.5088   8.6565   9.2357   9.2984   9.4610
     9.5044   9.6670   9.7755   9.7839   9.8176  10.0387  12.1123  12.1987
    13.2399  13.7043  13.7407  14.0038  14.1646  18.2963  18.3678  19.2788
    21.8420  22.0813  22.7156  23.6201  27.3145  27.5210  27.9405  28.1960
    28.3100  29.2072  29.3785  29.5158

          k = 0.0333 0.0564 0.0114 (  1218 PWs)   bands (ev):

   -77.9903 -74.9272 -74.8875 -74.3520 -44.5462 -43.0711 -43.0424 -40.6977
   -40.6782 -40.6119 -40.5900 -40.5169 -40.4669 -40.1125 -40.0611 -39.9650
    -7.4115  -6.4300  -6.3850  -6.1132   3.0705   3.6783   4.0452   4.5485
     4.7253   5.5806   5.9196   6.6545   6.9840   7.2608   7.4504   7.8030
     8.1207   8.2028   8.2796   8.4952   8.6597   9.2245   9.2886   9.3946
     9.5223   9.5766   9.7815   9.8087   9.8537  10.0549  12.1385  12.2181
    13.2963  13.6732  13.7013  13.9276  14.1477  18.3515  18.3986  19.3126
    21.8160  22.0387  22.7126  23.5913  27.1462  27.3521  27.7977  28.0607
    28.2858  29.3486  29.3690  29.5900

          k = 0.0667 0.1128 0.0228 (  1212 PWs)   bands (ev):

   -77.9855 -74.9226 -74.8830 -74.3478 -44.5402 -43.0622 -43.0335 -40.6884
   -40.6700 -40.6048 -40.5823 -40.5085 -40.4617 -40.1079 -40.0511 -39.9569
    -7.3846  -6.4402  -6.3649  -6.1224   3.1310   3.7554   4.0592   4.5345
     4.7265   5.5803   5.9361   6.6230   6.9643   7.2740   7.4220   7.7105
     8.1068   8.2138   8.2805   8.4583   8.6717   9.1954   9.2321   9.3025
     9.5150   9.5555   9.7685   9.8161   9.9674  10.1292  12.1837  12.2924
    13.4061  13.6269  13.7419  13.8471  14.1537  18.4955  18.5428  19.4132
    21.8374  22.0274  22.7180  23.5246  26.7959  27.0262  27.3274  28.0512
    28.3545  29.2440  29.3929  29.6553

          k = 0.1000 0.1693 0.0341 (  1203 PWs)   bands (ev):

   -77.9789 -74.9171 -74.8762 -74.3417 -44.5342 -43.0438 -43.0251 -40.6699
   -40.6644 -40.5888 -40.5768 -40.4992 -40.4547 -40.1015 -40.0352 -39.9478
    -7.3385  -6.4487  -6.3425  -6.1376   3.2220   3.8638   4.0868   4.5086
     4.7361   5.5766   5.9663   6.5785   6.9240   7.2823   7.3761   7.5762
     8.0918   8.2476   8.2909   8.3620   8.6907   9.0367   9.1872   9.3240
     9.4737   9.5566   9.7354   9.8199  10.0477  10.2080  12.2245  12.4131
    13.3963  13.5985  13.6751  13.8996  14.2722  18.6474  18.8260  19.5826
    21.9186  22.0503  22.7021  23.4354  26.2674  26.6094  26.7912  28.1688
    28.4818  29.0717  29.3609  29.6426

          k = 0.1333 0.2257 0.0455 (  1209 PWs)   bands (ev):

   -77.9834 -74.9211 -74.8810 -74.3461 -44.5483 -43.0454 -43.0370 -40.6753
   -40.6719 -40.5920 -40.5884 -40.5142 -40.4671 -40.1138 -40.0372 -39.9615
    -7.2846  -6.4577  -6.3187  -6.1590   3.3267   3.9470   4.1516   4.4587
     4.7547   5.5649   5.9960   6.5140   6.8519   7.2303   7.2941   7.4688
     8.0553   8.2376   8.2759   8.2845   8.6922   8.9071   9.1422   9.3409
     9.4129   9.5399   9.6923   9.7788  10.1094  10.2551  12.2699  12.5488
    13.3092  13.4640  13.5786  13.9253  14.5870  18.8195  19.1495  19.7921
    21.9532  22.0069  22.6667  23.3145  25.6456  26.1352  26.2687  28.3247
    28.6153  28.8435  29.3055  29.5782

          k = 0.1667 0.2821 0.0569 (  1201 PWs)   bands (ev):

   -77.9767 -74.9144 -74.8749 -74.3396 -44.5411 -43.0372 -43.0232 -40.6654
   -40.6607 -40.5849 -40.5816 -40.4999 -40.4616 -40.1069 -40.0297 -39.9474
    -7.2171  -6.4626  -6.2932  -6.1774   3.4587   3.9964   4.2630   4.4158
     4.7924   5.5499   6.0481   6.4629   6.7420   7.1259   7.1592   7.4724
     8.0054   8.1199   8.2835   8.3186   8.6749   8.8780   9.1172   9.3385
     9.4222   9.5298   9.6835   9.7849  10.1851  10.2994  12.3246  12.6960
    13.2262  13.2706  13.5457  13.9051  15.0293  18.9982  19.5375  20.0827
    21.9636  22.0753  22.6501  23.2448  25.0232  25.6821  25.7820  28.4557
    28.6242  28.8377  29.2431  29.4662

          k = 0.2000 0.3385 0.0683 (  1201 PWs)   bands (ev):

   -77.9753 -74.9131 -74.8743 -74.3384 -44.5495 -43.0329 -43.0196 -40.6641
   -40.6553 -40.5936 -40.5752 -40.5004 -40.4694 -40.1145 -40.0232 -39.9463
    -7.1431  -6.4694  -6.2707  -6.1938   3.5891   4.0160   4.2584   4.4638
     4.8811   5.5313   6.0985   6.4085   6.5865   6.9413   7.0677   7.5046
     7.9166   8.0325   8.2818   8.3482   8.6711   8.8763   9.0851   9.3111
     9.4326   9.5008   9.6687   9.7968  10.2111  10.3081  12.3868  12.8324
    13.0594  13.1838  13.5034  13.8521  15.5161  19.1415  19.9501  20.4515
    21.9331  22.1618  22.5706  23.2364  24.4019  25.2288  25.3213  28.2591
    28.7570  28.9871  29.1448  29.2956

          k = 0.2333 0.3949 0.0797 (  1200 PWs)   bands (ev):

   -77.9737 -74.9115 -74.8723 -74.3368 -44.5485 -43.0318 -43.0160 -40.6628
   -40.6572 -40.5923 -40.5699 -40.4969 -40.4682 -40.1140 -40.0224 -39.9451
    -7.0627  -6.4760  -6.2536  -6.2013   3.7110   4.0333   4.1687   4.5288
     5.0411   5.4932   6.1322   6.3582   6.4651   6.7457   7.0014   7.5313
     7.8445   7.9744   8.2461   8.3427   8.6937   8.8877   9.0619   9.2979
     9.4282   9.5100   9.6755   9.8257  10.1718  10.3041  12.4564  12.8617
    12.9514  13.1780  13.4652  13.7956  16.1221  19.2597  20.3742  20.7354
    21.9225  22.1421  22.5490  23.3018  23.8222  24.8114  24.9060  28.0568
    28.6693  28.9628  29.1535  29.2594

          k = 0.2667 0.4513 0.0911 (  1201 PWs)   bands (ev):

   -77.9733 -74.9113 -74.8720 -74.3365 -44.5515 -43.0315 -43.0151 -40.6628
   -40.6562 -40.5956 -40.5706 -40.4965 -40.4708 -40.1169 -40.0224 -39.9443
    -6.9804  -6.4826  -6.2487  -6.1924   3.8059   4.0603   4.0712   4.5555
     5.2132   5.4861   6.1143   6.2280   6.4754   6.5763   6.9545   7.5460
     7.8172   7.9293   8.2129   8.3052   8.7560   8.8932   9.0326   9.2987
     9.4009   9.5311   9.7037   9.8532  10.0734  10.3045  12.5273  12.7179
    13.0227  13.2106  13.4255  13.7299  16.6585  19.3271  20.7884  21.0056
    21.8746  21.9622  22.6889  23.2261  23.4390  24.4291  24.5441  27.9099
    28.1347  28.9504  29.1661  29.4216

          k = 0.3000 0.5078 0.1024 (  1201 PWs)   bands (ev):

   -77.9720 -74.9105 -74.8700 -74.3349 -44.5503 -43.0329 -43.0129 -40.6637
   -40.6545 -40.5950 -40.5780 -40.4934 -40.4652 -40.1150 -40.0267 -39.9397
    -6.8991  -6.4904  -6.2551  -6.1712   3.8556   3.9853   4.0983   4.5635
     5.2538   5.6037   5.9732   6.1754   6.3704   6.6152   6.9362   7.5594
     7.8069   7.9154   8.1661   8.2403   8.8323   8.9083   9.0044   9.2988
     9.3784   9.5360   9.7311   9.8813   9.9401  10.3144  12.5784  12.6481
    13.0737  13.2651  13.3948  13.6692  17.1449  19.3662  21.1653  21.2598
    21.5616  22.1120  22.7259  22.8873  23.5335  24.0739  24.2660  27.4377
    27.9122  28.9020  29.1433  29.5860

          k = 0.3333 0.5642 0.1138 (  1203 PWs)   bands (ev):

   -77.9733 -74.9117 -74.8709 -74.3358 -44.5429 -43.0388 -43.0233 -40.6695
   -40.6615 -40.5896 -40.5833 -40.5031 -40.4598 -40.1087 -40.0311 -39.9488
    -6.8225  -6.4937  -6.2653  -6.1452   3.8127   3.9650   4.1480   4.5712
     5.2091   5.6556   5.9403   6.0427   6.3818   6.6831   6.9670   7.5380
     7.8005   7.9433   8.1266   8.1621   8.8528   8.9230   9.0290   9.2935
     9.3595   9.5568   9.7368   9.7965   9.9188  10.3090  12.5661  12.7082
    13.1262  13.3057  13.3678  13.6049  17.5978  19.3850  21.2136  21.3915
    21.5049  22.0486  22.4832  22.9853  23.6000  23.7786  24.1222  26.7425
    28.0131  28.8379  29.0872  29.6744

          k = 0.3667 0.6206 0.1252 (  1209 PWs)   bands (ev):

   -77.9776 -74.9163 -74.8745 -74.3399 -44.5510 -43.0526 -43.0252 -40.6825
   -40.6650 -40.5998 -40.5953 -40.5039 -40.4667 -40.1156 -40.0467 -39.9509
    -6.7548  -6.4944  -6.2803  -6.1205   3.7259   3.9811   4.1856   4.5792
     5.1463   5.5320   5.7837   6.1651   6.4686   6.7095   7.0520   7.4919
     7.8114   7.9673   8.0624   8.1056   8.8473   8.8927   9.0929   9.2577
     9.3406   9.5638   9.6474   9.7656   9.9599  10.2812  12.6040  12.7844
    13.1639  13.3198  13.3430  13.5342  18.0291  19.4105  20.8655  21.4822
    21.5943  21.7616  22.6416  22.9547  23.4299  23.7800  24.1338  26.1030
    28.2039  28.8038  29.0459  29.6938

          k = 0.4000 0.6770 0.1366 (  1206 PWs)   bands (ev):

   -77.9753 -74.9143 -74.8721 -74.3373 -44.5559 -43.0370 -43.0237 -40.6722
   -40.6621 -40.6006 -40.5842 -40.5036 -40.4700 -40.1204 -40.0300 -39.9505
    -6.6985  -6.4883  -6.2966  -6.0967   3.6500   4.0013   4.2152   4.6022
     5.1003   5.4066   5.5812   6.3563   6.5722   6.7370   7.1164   7.4813
     7.8444   7.9704   8.0140   8.1019   8.8583   8.8678   9.1488   9.2254
     9.3380   9.5206   9.6251   9.7657  10.0120  10.2480  12.6948  12.8722
    13.1960  13.3094  13.3318  13.4660  18.4479  19.4466  20.5660  21.1545
    21.6768  21.8529  22.7258  22.9003  23.3022  23.8688  24.2460  25.5271
    28.4604  28.8070  29.0664  29.6518

          k = 0.4333 0.7334 0.1480 (  1210 PWs)   bands (ev):

   -77.9785 -74.9168 -74.8752 -74.3399 -44.5559 -43.0466 -43.0308 -40.6795
   -40.6706 -40.6005 -40.5949 -40.5101 -40.4700 -40.1195 -40.0407 -39.9572
    -6.6598  -6.4751  -6.3178  -6.0786   3.5893   4.0203   4.2299   4.6360
     5.0634   5.3062   5.3922   6.5142   6.6581   6.7525   7.0812   7.5557
     7.8299   7.9512   8.0026   8.0884   8.8398   8.8728   9.1410   9.1681
     9.3081   9.4542   9.6638   9.7706  10.0480  10.1871  12.8205  12.9583
    13.2070  13.2933  13.3084  13.3849  18.8500  19.5335  20.2697  20.7313
    21.7985  21.9693  22.6219  22.7345  23.4733  23.9238  24.3667  25.0350
    28.6174  28.8538  29.1909  29.5699

          k = 0.4667 0.7898 0.1594 (  1210 PWs)   bands (ev):

   -77.9779 -74.9156 -74.8749 -74.3394 -44.5533 -43.0470 -43.0317 -40.6779
   -40.6705 -40.5993 -40.5958 -40.5117 -40.4684 -40.1169 -40.0431 -39.9584
    -6.6378  -6.4574  -6.3384  -6.0668   3.5527   4.0349   4.2379   4.6799
     5.0437   5.2421   5.2577   6.6420   6.7180   6.7660   6.9979   7.6680
     7.7964   7.9017   8.0415   8.0803   8.8181   8.8981   9.1054   9.1293
     9.2518   9.4351   9.7106   9.7773  10.0598  10.1530  12.9500  13.0490
    13.1762  13.2731  13.2924  13.3132  19.2327  19.6824  20.0439  20.3704
    21.9133  22.0572  22.5173  22.5646  23.7061  23.9818  24.4438  24.6681
    28.6688  28.9182  29.3596  29.5142

          k = 0.5000 0.8463 0.1707 (  1212 PWs)   bands (ev):

   -77.9789 -74.9168 -74.8764 -74.3409 -44.5622 -43.0473 -43.0291 -40.6764
   -40.6689 -40.6073 -40.5976 -40.5084 -40.4785 -40.1257 -40.0442 -39.9556
    -6.6301  -6.4470  -6.3480  -6.0626   3.5381   4.0394   4.2407   4.7053
     5.0400   5.1982   5.2360   6.7211   6.7307   6.7778   6.9497   7.7567
     7.7696   7.8446   8.0584   8.0771   8.8149   8.9110   9.0802   9.1363
     9.2130   9.4338   9.7395   9.7765  10.0587  10.1318  13.0298  13.1158
    13.1233  13.2033  13.2880  13.2969  19.3674  19.8353  19.8940  20.1396
    21.9518  22.0864  22.4666  22.4843  23.8032  24.0606  24.4504  24.4721
    28.6858  28.9505  29.4104  29.5147

          k = 0.5000 0.9067 0.2087 (  1207 PWs)   bands (ev):

   -77.9755 -74.9133 -74.8726 -74.3371 -44.5481 -43.0439 -43.0280 -40.6746
   -40.6666 -40.5938 -40.5936 -40.5081 -40.4639 -40.1112 -40.0392 -39.9548
    -6.6346  -6.4588  -6.3389  -6.0663   3.5437   4.0384   4.2397   4.6727
     4.9658   5.2619   5.3388   6.6205   6.7366   6.7927   6.9966   7.6755
     7.7801   7.9143   8.0432   8.0999   8.8082   8.8987   9.1094   9.1316
     9.2659   9.4342   9.7135   9.7821  10.0632  10.1618  12.9236  13.0809
    13.1237  13.2815  13.3056  13.3535  19.2374  19.6398  20.0447  20.3445
    21.8938  22.0665  22.5070  22.6226  23.6709  23.9829  24.4820  24.7223
    28.6839  28.9379  29.3990  29.4963

          k = 0.5000 0.9671 0.2466 (  1214 PWs)   bands (ev):

   -77.9812 -74.9189 -74.8783 -74.3425 -44.5609 -43.0458 -43.0407 -40.6842
   -40.6757 -40.6056 -40.5932 -40.5208 -40.4735 -40.1242 -40.0409 -39.9672
    -6.6488  -6.4872  -6.3232  -6.0808   3.5518   4.0305   4.2354   4.5903
     4.9078   5.3311   5.5548   6.4699   6.6899   6.8239   7.0733   7.5607
     7.7792   7.9603   8.0188   8.1261   8.7729   8.8519   9.1399   9.1566
     9.3416   9.4276   9.6597   9.7514  10.0355  10.2098  12.7553  13.0416
    13.1149  13.2625  13.3439  13.5023  18.9118  19.3022  20.2458  20.5953
    21.7454  22.0387  22.5657  22.8980  23.3667  23.9605  24.5064  25.1082
    28.6741  28.9064  29.3257  29.4088

          k = 0.5000 1.0276 0.2845 (  1218 PWs)   bands (ev):

   -77.9842 -74.9222 -74.8817 -74.3458 -44.5712 -43.0486 -43.0425 -40.6868
   -40.6768 -40.6137 -40.5924 -40.5255 -40.4858 -40.1347 -40.0399 -39.9717
    -6.6690  -6.5202  -6.3077  -6.1037   3.5705   4.0104   4.2325   4.5137
     4.8952   5.4461   5.7873   6.3005   6.6152   6.8678   7.1136   7.4671
     7.7448   7.9245   8.0922   8.1529   8.7299   8.8482   9.1489   9.1724
     9.3859   9.4840   9.6178   9.7302   9.9744  10.2760  12.6034  12.9876
    13.0923  13.2312  13.3980  13.6456  18.6043  19.0270  20.3703  20.7835
    21.6540  22.0833  22.6094  23.0572  23.2297  23.9731  24.5676  25.5336
    28.6853  28.8822  29.1597  29.3202

          k = 0.5000 1.0880 0.3225 (  1218 PWs)   bands (ev):

   -77.9844 -74.9228 -74.8822 -74.3461 -44.5713 -43.0503 -43.0432 -40.6895
   -40.6779 -40.6094 -40.5957 -40.5261 -40.4854 -40.1348 -40.0395 -39.9711
    -6.6929  -6.5549  -6.2941  -6.1343   3.6109   3.9923   4.2232   4.4790
     4.9159   5.5901   5.9785   6.1620   6.5378   6.9045   7.0905   7.4149
     7.6988   7.9127   8.1624   8.2104   8.6585   8.8785   9.1372   9.1815
     9.4121   9.5421   9.6585   9.7419   9.9075  10.3116  12.5060  12.9172
    13.0637  13.1992  13.4469  13.7432  18.2817  18.7924  20.2967  20.9459
    21.7476  22.2079  22.5241  22.9799  23.4888  24.0125  24.6862  25.8946
    28.7108  28.7751  29.0855  29.3166

          k = 0.5000 1.1485 0.3604 (  1217 PWs)   bands (ev):

   -77.9843 -74.9228 -74.8827 -74.3466 -44.5778 -43.0486 -43.0357 -40.6886
   -40.6704 -40.6134 -40.5915 -40.5238 -40.4912 -40.1411 -40.0346 -39.9678
    -6.7198  -6.5897  -6.2866  -6.1723   3.6749   3.9761   4.2000   4.5043
     4.9565   5.7219   5.9089   6.2367   6.4520   6.9063   7.0479   7.3779
     7.7056   7.9022   8.1821   8.2932   8.5554   8.9270   9.1289   9.1806
     9.4415   9.5298   9.7240   9.7385   9.9052  10.3478  12.4674  12.8438
    13.0251  13.1791  13.4880  13.8086  17.9696  18.6243  20.0140  21.0851
    21.8692  22.3086  22.4862  23.0910  23.6696  24.1186  24.8401  26.2538
    28.5525  28.6960  29.1519  29.4660

          k = 0.5000 1.2089 0.3983 (  1211 PWs)   bands (ev):

   -77.9808 -74.9194 -74.8790 -74.3435 -44.5633 -43.0471 -43.0272 -40.6842
   -40.6601 -40.6035 -40.5820 -40.5178 -40.4811 -40.1288 -40.0291 -39.9635
    -6.7471  -6.6238  -6.2878  -6.2109   3.7642   3.9671   4.1715   4.5647
     5.0365   5.7064   5.8980   6.2435   6.4814   6.8534   7.0220   7.3730
     7.7639   7.8973   8.1888   8.2888   8.5360   8.9768   9.1241   9.1831
     9.4551   9.5407   9.6749   9.7667  10.0306  10.3585  12.4900  12.7653
    12.9979  13.1724  13.5055  13.8158  17.6827  18.4982  19.7122  21.1112
    22.0702  22.2151  22.7510  23.2386  23.7127  24.3881  25.0319  26.5051
    28.3555  28.7028  29.2255  29.7172

          k = 0.5000 1.2694 0.4363 (  1211 PWs)   bands (ev):

   -77.9812 -74.9196 -74.8797 -74.3443 -44.5707 -43.0445 -43.0247 -40.6821
   -40.6570 -40.6105 -40.5795 -40.5152 -40.4885 -40.1363 -40.0270 -39.9603
    -6.7753  -6.6570  -6.3166  -6.2338   3.8487   3.9691   4.1434   4.6368
     5.1440   5.5639   6.0017   6.1304   6.5277   6.7967   6.9989   7.3936
     7.8309   7.8517   8.1516   8.2193   8.6157   8.9765   9.0945   9.2064
     9.4310   9.5566   9.5932   9.7978  10.1588  10.3529  12.5386  12.6851
    12.9990  13.1820  13.4990  13.7714  17.4490  18.4085  19.3876  21.0153
    22.1290  22.4590  23.0418  23.4227  23.6936  24.6882  25.1911  26.7214
    28.2293  28.6958  29.2528  29.9083

          k = 0.4750 1.2694 0.4543 (  1211 PWs)   bands (ev):

   -77.9815 -74.9203 -74.8793 -74.3443 -44.5688 -43.0459 -43.0248 -40.6832
   -40.6565 -40.6102 -40.5804 -40.5133 -40.4882 -40.1343 -40.0298 -39.9594
    -6.7553  -6.6565  -6.3356  -6.2377   3.8345   3.9561   4.1558   4.6437
     5.1361   5.5925   5.9829   6.1285   6.5785   6.7972   7.0101   7.3630
     7.8018   7.8701   8.1127   8.2378   8.5980   8.9834   9.1037   9.2372
     9.4438   9.5466   9.5667   9.8344  10.1471  10.3528  12.4888  12.6888
    12.9689  13.1640  13.5254  13.8122  17.6119  18.3686  19.1908  20.9730
    22.2271  22.5299  23.0290  23.3231  23.7799  24.7927  25.2696  26.5467
    28.1144  28.7226  29.3094  29.8659

          k = 0.4500 1.2694 0.4723 (  1213 PWs)   bands (ev):

   -77.9828 -74.9213 -74.8811 -74.3457 -44.5757 -43.0457 -43.0254 -40.6832
   -40.6572 -40.6177 -40.5777 -40.5155 -40.4955 -40.1413 -40.0278 -39.9620
    -6.7420  -6.6497  -6.3531  -6.2420   3.8265   3.9379   4.1678   4.6483
     5.1345   5.6130   5.9659   6.1234   6.6158   6.8017   7.0236   7.3368
     7.7479   7.9012   8.0780   8.2570   8.5785   8.9841   9.1064   9.2621
     9.4517   9.5282   9.5436   9.8663  10.1306  10.3551  12.4399  12.6909
    12.9432  13.1500  13.5434  13.8423  17.7651  18.3439  19.0081  20.9341
    22.3133  22.6062  23.0153  23.2187  23.8612  24.8357  25.3872  26.3664
    28.0190  28.7423  29.3693  29.8104

          k = 0.4250 1.2694 0.4903 (  1213 PWs)   bands (ev):

   -77.9829 -74.9213 -74.8809 -74.3454 -44.5724 -43.0495 -43.0256 -40.6865
   -40.6580 -40.6142 -40.5772 -40.5198 -40.4925 -40.1367 -40.0274 -39.9657
    -6.7340  -6.6392  -6.3688  -6.2451   3.8250   3.9197   4.1770   4.6523
     5.1334   5.6325   5.9523   6.1193   6.6385   6.8166   7.0332   7.3199
     7.7038   7.9300   8.0543   8.2726   8.5619   8.9858   9.1139   9.2875
     9.4557   9.4998   9.5385   9.8991  10.1139  10.3480  12.4004  12.6886
    12.9272  13.1428  13.5615  13.8682  17.9202  18.3296  18.8310  20.9064
    22.3729  22.7090  23.0217  23.1164  23.9266  24.8359  25.5534  26.1631
    27.9384  28.7646  29.4124  29.7542

          k = 0.4000 1.2694 0.5083 (  1211 PWs)   bands (ev):

   -77.9812 -74.9194 -74.8801 -74.3441 -44.5723 -43.0486 -43.0175 -40.6856
   -40.6509 -40.6158 -40.5705 -40.5179 -40.4902 -40.1355 -40.0216 -39.9639
    -6.7280  -6.6300  -6.3807  -6.2480   3.8271   3.9051   4.1843   4.6575
     5.1373   5.6437   5.9453   6.1132   6.6535   6.8351   7.0460   7.3109
     7.6617   7.9512   8.0396   8.2950   8.5521   8.9828   9.1093   9.3273
     9.4643   9.4652   9.5422   9.9195  10.1282  10.3472  12.3741  12.6877
    12.9171  13.1368  13.5697  13.8836  18.0537  18.3475  18.6776  20.8839
    22.4009  22.7874  22.9913  23.0569  23.9710  24.8529  25.7300  25.9919
    27.8910  28.7869  29.4185  29.7145

          k = 0.3750 1.2694 0.5263 (  1216 PWs)   bands (ev):

   -77.9850 -74.9235 -74.8837 -74.3481 -44.5850 -43.0500 -43.0226 -40.6892
   -40.6538 -40.6265 -40.5727 -40.5231 -40.5030 -40.1486 -40.0232 -39.9691
    -6.7232  -6.6288  -6.3884  -6.2506   3.8303   3.8902   4.1841   4.6561
     5.1387   5.6362   5.9314   6.0941   6.6528   6.8428   7.0527   7.3075
     7.6264   7.9676   8.0241   8.3034   8.5523   8.9754   9.0953   9.3433
     9.4287   9.4570   9.5364   9.9320  10.1298  10.3382  12.3627  12.6866
    12.9136  13.1388  13.5663  13.8832  18.1172  18.4307  18.4903  20.8579
    22.4185  22.8220  22.9420  23.0682  23.9874  24.8566  25.7879  25.9066
    27.8692  28.8031  29.3659  29.6813

          k = 0.3500 1.1848 0.4912 (  1219 PWs)   bands (ev):

   -77.9857 -74.9235 -74.8848 -74.3483 -44.5780 -43.0475 -43.0412 -40.6831
   -40.6708 -40.6259 -40.5868 -40.5242 -40.4945 -40.1432 -40.0366 -39.9695
    -6.7027  -6.5525  -6.3541  -6.2216   3.6502   3.8982   4.1971   4.5454
     4.9873   5.7862   5.8515   6.2871   6.6427   6.9473   7.0253   7.3070
     7.7009   7.9171   8.0791   8.3060   8.4228   9.0226   9.1009   9.3225
     9.4537   9.4858   9.5572   9.8890   9.9383  10.3401  12.3043  12.8167
    12.8430  13.0956  13.6137  14.0003  18.2723  18.7673  18.8066  20.8577
    22.1877  22.5149  22.6930  22.9862  24.0209  24.5937  25.4296  25.6131
    27.8438  28.8055  29.2274  29.5298

          k = 0.3250 1.1001 0.4562 (  1211 PWs)   bands (ev):

   -77.9787 -74.9166 -74.8780 -74.3410 -44.5620 -43.0371 -43.0359 -40.6749
   -40.6669 -40.6119 -40.5815 -40.5142 -40.4764 -40.1275 -40.0299 -39.9591
    -6.6774  -6.4803  -6.3605  -6.1651   3.5100   3.9086   4.2092   4.4634
     4.8923   5.7282   5.9684   6.3756   6.6238   6.8933   7.0621   7.4195
     7.7339   7.8930   8.1018   8.3552   8.4526   9.0352   9.1063   9.2954
     9.4465   9.5131   9.6575   9.7747   9.8828  10.3078  12.2999  12.8309
    12.9375  13.1155  13.6196  14.0324  18.4340  19.1445  19.1913  20.6612
    22.0708  22.2285  22.6784  23.0195  23.9509  24.3594  25.1328  25.3226
    27.9911  28.7642  29.1096  29.5107

          k = 0.3000 1.0155 0.4211 (  1211 PWs)   bands (ev):

   -77.9790 -74.9168 -74.8774 -74.3410 -44.5578 -43.0440 -43.0354 -40.6781
   -40.6678 -40.6110 -40.5829 -40.5185 -40.4724 -40.1235 -40.0311 -39.9656
    -6.6497  -6.4220  -6.3830  -6.1162   3.4345   3.9253   4.2221   4.4477
     4.8274   5.6729   6.0218   6.3051   6.5830   6.8661   7.1719   7.4671
     7.6929   7.9210   8.0362   8.4171   8.5583   8.9927   9.0768   9.2539
     9.4174   9.4707   9.6996   9.7682   9.8692  10.2647  12.3567  12.8733
    13.0424  13.1628  13.5456  13.9415  18.6374  19.5339  19.5729  20.3651
    21.9094  21.9601  22.7768  23.0864  23.7817  24.1194  24.8641  25.0422
    28.2133  28.6819  28.9549  29.5837

          k = 0.2750 0.9309 0.3860 (  1215 PWs)   bands (ev):

   -77.9823 -74.9192 -74.8797 -74.3436 -44.5517 -43.0506 -43.0492 -40.6851
   -40.6791 -40.6061 -40.5966 -40.5264 -40.4644 -40.1179 -40.0454 -39.9738
    -6.6275  -6.4157  -6.3722  -6.0881   3.4128   3.9426   4.2328   4.5024
     4.7633   5.6459   5.9855   6.1247   6.5162   6.9779   7.2753   7.3551
     7.6500   7.9537   8.0389   8.4491   8.6571   8.9825   9.0820   9.1864
     9.2839   9.4883   9.7117   9.8382   9.8649  10.1676  12.4245  12.9598
    13.1006  13.2247  13.4413  13.8063  18.9560  19.8301  19.9107  20.0047
    21.7299  21.7781  23.0675  23.1794  23.5645  23.8832  24.5890  24.7428
    28.4325  28.5894  28.8630  29.3752

          k = 0.2500 0.8463 0.3509 (  1218 PWs)   bands (ev):

   -77.9857 -74.9228 -74.8822 -74.3468 -44.5542 -43.0640 -43.0490 -40.6970
   -40.6854 -40.6077 -40.6027 -40.5262 -40.4702 -40.1191 -40.0600 -39.9730
    -6.6300  -6.4279  -6.3466  -6.0819   3.4533   3.9336   4.2389   4.6470
     4.7172   5.6615   5.9212   5.9507   6.4423   7.0606   7.1777   7.3780
     7.5961   7.9584   8.0423   8.4163   8.7284   9.0452   9.0936   9.1438
     9.2150   9.5175   9.7141   9.8535   9.8882  10.1218  12.4583  13.0314
    13.1101  13.2843  13.3343  13.6943  19.2834  19.4582  20.2296  20.2487
    21.6127  21.6869  23.2561  23.3725  23.5443  23.7366  24.2889  24.4268
    28.4425  28.4893  28.9014  29.1630

          k = 0.2250 0.7616 0.3158 (  1207 PWs)   bands (ev):

   -77.9755 -74.9123 -74.8728 -74.3367 -44.5426 -43.0436 -43.0331 -40.6758
   -40.6675 -40.5937 -40.5900 -40.5124 -40.4591 -40.1085 -40.0378 -39.9593
    -6.6688  -6.4123  -6.3351  -6.0925   3.5489   3.9309   4.2280   4.6547
     4.9048   5.7209   5.8482   5.9813   6.3831   6.8010   7.3213   7.3904
     7.6129   7.9525   8.0143   8.3628   8.8040   9.0178   9.1101   9.1982
     9.2889   9.5480   9.6874   9.7993   9.9326  10.1515  12.4632  12.9081
    13.1449  13.2296  13.3839  13.6822  18.8681  19.9993  20.4570  20.4883
    21.6968  21.7921  23.0780  23.3544  23.5128  23.9289  24.0560  24.3954
    28.3003  28.4772  28.8194  29.3234

          k = 0.2000 0.6770 0.2807 (  1212 PWs)   bands (ev):

   -77.9794 -74.9167 -74.8760 -74.3406 -44.5553 -43.0484 -43.0361 -40.6787
   -40.6700 -40.6064 -40.5960 -40.5151 -40.4714 -40.1207 -40.0427 -39.9617
    -6.7417  -6.3865  -6.3363  -6.1174   3.6670   3.9120   4.1809   4.6138
     5.1589   5.6673   5.9406   6.0759   6.3148   6.4779   7.2011   7.4577
     7.7192   7.9152   7.9890   8.2626   8.8162   8.9957   9.1027   9.2816
     9.4077   9.5289   9.6110   9.7683   9.9800  10.1809  12.4432  12.7197
    13.0621  13.2370  13.4283  13.7184  18.2719  20.3943  20.5785  20.6169
    21.9682  22.0313  22.8609  23.0927  23.5285  23.6052  23.8674  25.2269
    27.9414  28.5553  28.9068  29.5540

          k = 0.1750 0.5924 0.2456 (  1210 PWs)   bands (ev):

   -77.9786 -74.9161 -74.8754 -74.3402 -44.5552 -43.0516 -43.0261 -40.6810
   -40.6605 -40.6065 -40.5983 -40.5036 -40.4732 -40.1217 -40.0463 -39.9503
    -6.8363  -6.3656  -6.3350  -6.1471   3.7895   3.9146   4.1103   4.5946
     5.3488   5.6618   6.0366   6.1444   6.2731   6.3481   6.9949   7.5559
     7.8370   7.9087   7.9989   8.1657   8.8045   9.0190   9.0878   9.3023
     9.4740   9.5284   9.5960   9.8294  10.0098  10.2111  12.4092  12.6109
    12.9815  13.2232  13.4640  13.7846  17.6511  20.3575  20.4737  21.0292
    22.0544  22.4957  22.7113  23.0113  23.1755  23.3718  24.1336  26.2533
    27.6430  28.6979  29.0964  29.7157

          k = 0.1500 0.5078 0.2105 (  1199 PWs)   bands (ev):

   -77.9711 -74.9079 -74.8691 -74.3331 -44.5442 -43.0350 -43.0129 -40.6684
   -40.6512 -40.5938 -40.5748 -40.4896 -40.4655 -40.1108 -40.0301 -39.9372
    -6.9445  -6.3708  -6.3151  -6.1800   3.8451   3.9393   4.0741   4.5771
     5.3411   5.5855   6.0876   6.2434   6.3570   6.5437   6.8319   7.6387
     7.7918   7.9801   8.0460   8.1633   8.7366   9.0345   9.0570   9.3056
     9.5013   9.5246   9.6334   9.9615  10.0223  10.2153  12.3740  12.6355
    12.9193  13.1863  13.4966  13.8473  17.0260  20.2245  20.2714  21.3457
    21.8737  22.5080  22.7747  23.0431  23.2973  23.5490  24.5217  27.4334
    27.6092  28.8536  29.2455  29.6376

          k = 0.1250 0.4231 0.1754 (  1197 PWs)   bands (ev):

   -77.9707 -74.9077 -74.8691 -74.3332 -44.5419 -43.0341 -43.0112 -40.6651
   -40.6500 -40.5907 -40.5681 -40.4945 -40.4628 -40.1084 -40.0216 -39.9419
    -7.0586  -6.3854  -6.2969  -6.2029   3.7305   3.9490   4.1757   4.5410
     5.1003   5.5230   6.2018   6.3523   6.4652   6.7537   6.8583   7.6602
     7.7486   8.0434   8.1115   8.2517   8.6385   8.9691   9.0737   9.3194
     9.4893   9.5502   9.6569   9.9467  10.1444  10.2065  12.3357  12.8040
    12.8546  13.1397  13.5211  13.8947  16.2979  19.9278  19.9445  21.0161
    21.9968  22.3087  22.6745  22.9157  23.9920  24.1947  24.9954  27.8202
    28.4131  28.8841  29.2032  29.5761

          k = 0.1000 0.3385 0.1404 (  1195 PWs)   bands (ev):

   -77.9714 -74.9097 -74.8686 -74.3339 -44.5353 -43.0286 -43.0169 -40.6608
   -40.6517 -40.5847 -40.5702 -40.4939 -40.4547 -40.1019 -40.0205 -39.9413
    -7.1696  -6.3981  -6.3051  -6.1945   3.5526   3.9605   4.2985   4.4383
     4.8650   5.5313   6.1242   6.4865   6.6304   6.9596   7.0598   7.5418
     7.9438   8.0924   8.1962   8.3341   8.5785   8.9127   9.0944   9.3621
     9.4456   9.6279   9.6754   9.8851  10.1732  10.2542  12.2948  12.7473
    13.0674  13.1577  13.5633  13.9537  15.4322  19.5245  19.5709  20.4981
    21.9628  22.1905  22.6606  22.9930  24.7814  24.9520  25.5515  28.2050
    28.7271  28.9701  29.0558  29.5280

          k = 0.0750 0.2539 0.1053 (  1199 PWs)   bands (ev):

   -77.9761 -74.9147 -74.8726 -74.3386 -44.5327 -43.0387 -43.0220 -40.6669
   -40.6564 -40.5855 -40.5764 -40.4993 -40.4525 -40.1006 -40.0283 -39.9471
    -7.2677  -6.4103  -6.3335  -6.1666   3.3643   3.9352   4.2241   4.4265
     4.7662   5.5508   6.0390   6.5470   6.8186   7.1538   7.3092   7.4492
     8.0975   8.1818   8.2490   8.3453   8.6216   8.8544   9.1305   9.3702
     9.4360   9.6606   9.7098   9.8121  10.1211  10.2373  12.2515  12.5731
    13.2576  13.3756  13.5933  13.9800  14.7415  19.0849  19.1522  19.9439
    21.9140  22.0974  22.6500  23.2155  25.5816  25.7480  26.1832  28.4580
    28.6689  28.7401  29.3184  29.4998

          k = 0.0500 0.1693 0.0702 (  1201 PWs)   bands (ev):

   -77.9777 -74.9160 -74.8740 -74.3401 -44.5269 -43.0413 -43.0268 -40.6689
   -40.6650 -40.5824 -40.5731 -40.4994 -40.4487 -40.0947 -40.0328 -39.9495
    -7.3478  -6.4188  -6.3638  -6.1375   3.2021   3.8325   4.0930   4.5070
     4.7356   5.5684   5.9723   6.6044   6.9265   7.2730   7.4010   7.5825
     8.1256   8.2490   8.2877   8.3696   8.6889   8.9892   9.1803   9.3291
     9.4983   9.6455   9.7615   9.7989  10.0443  10.1918  12.2103  12.3941
    13.4067  13.6064  13.6805  13.9114  14.2651  18.6965  18.7493  19.5919
    21.8674  22.1103  22.7042  23.4224  26.3820  26.5511  26.8896  28.2362
    28.4588  29.0659  29.4372  29.5527

          k = 0.0250 0.0846 0.0351 (  1216 PWs)   bands (ev):

   -77.9888 -74.9252 -74.8864 -74.3507 -44.5435 -43.0676 -43.0408 -40.6928
   -40.6749 -40.6088 -40.5875 -40.5178 -40.4651 -40.1098 -40.0574 -39.9637
    -7.4014  -6.4223  -6.3864  -6.1167   3.0893   3.7031   4.0485   4.5423
     4.7251   5.5780   5.9289   6.6479   6.9772   7.2596   7.4371   7.7671
     8.1255   8.2140   8.2766   8.4771   8.6613   9.2127   9.2800   9.3083
     9.5421   9.5728   9.7819   9.8168   9.9021  10.0768  12.1609  12.2411
    13.3450  13.6457  13.7200  13.8854  14.1568  18.3964  18.4628  19.3589
    21.8128  22.0451  22.7168  23.5605  27.0063  27.1984  27.6175  28.0770
    28.2942  29.3130  29.4355  29.6118

          k = 0.0000 0.0000 0.0000 (  1213 PWs)   bands (ev):

   -77.9860 -74.9259 -74.8812 -74.3482 -44.5502 -43.0532 -43.0372 -40.6954
   -40.6754 -40.5948 -40.5792 -40.5116 -40.4693 -40.1154 -40.0429 -39.9607
    -7.4215  -6.4233  -6.3950  -6.1099   3.0515   3.6544   4.0407   4.5573
     4.7299   5.5814   5.9132   6.6680   6.9909   7.2531   7.4731   7.8448
     8.1265   8.2150   8.2783   8.5088   8.6565   9.2357   9.2984   9.4610
     9.5044   9.6670   9.7755   9.7839   9.8176  10.0387  12.1123  12.1987
    13.2399  13.7043  13.7407  14.0038  14.1646  18.2963  18.3678  19.2788
    21.8420  22.0813  22.7156  23.6201  27.3145  27.5210  27.9405  28.1960
    28.3100  29.2072  29.3785  29.5158

          k = 0.0385 0.0651 0.0540 (  1217 PWs)   bands (ev):

   -77.9901 -74.9272 -74.8867 -74.3516 -44.5468 -43.0735 -43.0374 -40.7000
   -40.6743 -40.6138 -40.5914 -40.5107 -40.4679 -40.1130 -40.0632 -39.9598
    -7.4029  -6.4298  -6.3850  -6.1202   3.0927   3.7036   4.0483   4.5474
     4.7275   5.5816   5.9208   6.6518   6.9760   7.2541   7.4508   7.7762
     8.1128   8.2088   8.2727   8.4805   8.6722   9.2109   9.2738   9.3085
     9.5362   9.5917   9.7821   9.8130   9.8619  10.0713  12.1514  12.2436
    13.3330  13.6552  13.7199  13.8921  14.1564  18.3556  18.4281  19.3561
    21.8407  22.0573  22.7183  23.5781  27.1077  27.3016  27.6479  28.0693
    28.2710  29.3015  29.3342  29.6102

          k = 0.0769 0.1302 0.1080 (  1207 PWs)   bands (ev):

   -77.9829 -74.9206 -74.8794 -74.3449 -44.5361 -43.0548 -43.0303 -40.6808
   -40.6700 -40.5970 -40.5812 -40.4998 -40.4593 -40.1036 -40.0459 -39.9527
    -7.3499  -6.4456  -6.3622  -6.1521   3.2067   3.8272   4.0884   4.5316
     4.7384   5.5832   5.9363   6.6131   6.9301   7.2424   7.4445   7.5979
     8.0860   8.2110   8.2840   8.3542   8.7198   8.9892   9.1699   9.3222
     9.5933   9.6047   9.7696   9.8139   9.9026  10.1839  12.1756  12.3922
    13.3927  13.6375  13.6828  13.9216  14.2583  18.5296  18.5867  19.5805
    21.9104  22.1538  22.7007  23.4810  26.6575  26.8229  26.9778  28.2073
    28.3940  28.9892  29.3088  29.5362

          k = 0.1154 0.1953 0.1619 (  1208 PWs)   bands (ev):

   -77.9832 -74.9201 -74.8809 -74.3452 -44.5423 -43.0516 -43.0360 -40.6790
   -40.6706 -40.5940 -40.5866 -40.5122 -40.4647 -40.1093 -40.0428 -39.9604
    -7.2759  -6.4637  -6.3328  -6.1963   3.3696   3.9272   4.2053   4.4862
     4.7742   5.5905   5.9641   6.5672   6.8426   7.1643   7.3280   7.4895
     8.0411   8.0751   8.1996   8.3462   8.6773   8.8808   9.1084   9.3685
     9.5749   9.6258   9.7245   9.8505   9.9145  10.2463  12.1911  12.5484
    13.2455  13.3694  13.6459  14.0293  14.7232  18.7462  18.7810  19.9396
    21.9895  22.2432  22.6452  23.3606  26.0003  26.1575  26.3244  28.4108
    28.5611  28.6612  29.2526  29.4328

          k = 0.1538 0.2604 0.2159 (  1199 PWs)   bands (ev):

   -77.9750 -74.9125 -74.8737 -74.3374 -44.5439 -43.0383 -43.0162 -40.6687
[...]
    -6.5588  -6.2641  -6.1167  -5.9319   4.6797   5.0980   6.0730   6.3078
     6.6590   6.8020   7.1140   7.5131   7.5985   7.8672   8.1965   8.3351
     8.5221   8.8217   9.0203   9.1430   9.1897   9.4663   9.5592   9.7073
     9.8262   9.9577  12.5662  12.9124  13.2652  13.3646  13.6605  13.7656
    13.8628  13.9891  14.1830  14.8915  17.8109  19.5322  19.7704  20.6550
    21.9313  22.5009  22.8491  23.2695  23.3604  23.8378  25.6791  27.8050
    28.4796  28.9075  29.4932  29.7025

          k = 0.5750 1.1424 0.4619 (  1210 PWs)   bands (ev):

   -74.9097 -74.8619 -74.2063 -74.0451 -40.6692 -40.6578 -40.6030 -40.5618
   -40.4918 -40.4772 -40.3142 -40.0105 -39.8919 -39.8200 -39.5918 -39.5880
    -6.5844  -6.2967  -6.1304  -5.9463   4.7789   5.2250   6.0201   6.2342
     6.6684   6.8048   7.0568   7.4523   7.6774   7.8676   8.1506   8.2718
     8.5024   8.8670   9.0047   9.0746   9.2130   9.4494   9.5891   9.7433
     9.8663  10.0060  12.5555  12.9703  13.1329  13.3378  13.6886  13.7625
    13.8595  13.9801  14.1963  14.8348  17.7467  19.3381  19.7689  20.7831
    22.0060  22.4824  22.9508  23.3606  23.4860  24.0244  25.5444  27.6447
    28.5507  29.1441  29.3780  29.5210

          k = 0.5500 1.1848 0.4533 (  1216 PWs)   bands (ev):

   -74.9151 -74.8673 -74.2114 -74.0503 -40.6881 -40.6569 -40.6101 -40.5718
   -40.5047 -40.4825 -40.3210 -40.0168 -39.9014 -39.8294 -39.6094 -39.5890
    -6.6080  -6.3380  -6.1464  -5.9609   4.9107   5.3674   5.9644   6.1567
     6.6639   6.7838   7.0082   7.3712   7.7623   7.8537   8.0712   8.1995
     8.4663   8.8507   8.9918   9.0536   9.2397   9.4302   9.6104   9.7804
     9.8951  10.0547  12.5425  12.9576  13.0310  13.3051  13.6983  13.7208
    13.8618  13.9745  14.2049  14.7841  17.6922  19.1107  19.7268  20.9195
    22.1598  22.4446  23.0427  23.4240  23.6456  24.2784  25.4172  27.4308
    28.6513  29.0048  29.3645  29.5722

          k = 0.5250 1.2271 0.4448 (  1213 PWs)   bands (ev):

   -74.9137 -74.8654 -74.2098 -74.0486 -40.6831 -40.6582 -40.6059 -40.5680
   -40.5041 -40.4757 -40.3187 -40.0147 -39.8976 -39.8269 -39.6007 -39.5897
    -6.6272  -6.3832  -6.1670  -5.9723   5.0593   5.5233   5.9165   6.1242
     6.6435   6.7435   6.9865   7.3076   7.8410   7.8575   8.0079   8.1526
     8.4380   8.7657   8.9760   9.1049   9.2794   9.4144   9.6239   9.8410
     9.9452  10.1253  12.5316  12.8119  13.0747  13.2710  13.6514  13.7106
    13.8715  13.9735  14.2346  14.7511  17.6600  18.8787  19.6576  21.0798
    22.3609  22.4166  23.1294  23.5193  23.8060  24.6107  25.3431  27.2018
    28.6670  28.7726  29.4541  29.7641

          k = 0.5000 1.2694 0.4363 (  1211 PWs)   bands (ev):

   -74.9135 -74.8647 -74.2092 -74.0479 -40.6813 -40.6525 -40.6077 -40.5629
   -40.4982 -40.4805 -40.3172 -40.0132 -39.8937 -39.8276 -39.6009 -39.5852
    -6.6445  -6.4337  -6.1878  -5.9820   5.2271   5.6885   5.8634   6.1170
     6.5873   6.7069   6.9397   7.2768   7.8207   7.9313   7.9720   8.1108
     8.4086   8.6548   8.9547   9.1686   9.3194   9.4099   9.6341   9.8970
     9.9722  10.1865  12.5174  12.6739  13.1071  13.2355  13.5809  13.7102
    13.8859  13.9759  14.2567  14.7287  17.6556  18.6121  19.5634  21.2143
    22.3499  22.6658  23.2127  23.6609  23.9634  24.8584  25.3959  26.9617
    28.3683  28.8763  29.4693  30.0258

          k = 0.5000 1.2271 0.4628 (  1211 PWs)   bands (ev):

   -74.9124 -74.8635 -74.2083 -74.0471 -40.6813 -40.6578 -40.6008 -40.5658
   -40.4987 -40.4742 -40.3101 -40.0063 -39.8969 -39.8282 -39.6005 -39.5896
    -6.6024  -6.3888  -6.1843  -5.9743   5.0259   5.4741   5.9970   6.1751
     6.6489   6.7626   6.9664   7.3051   7.8276   7.8581   7.9890   8.1668
     8.3920   8.7553   8.9741   9.1255   9.2979   9.4497   9.6152   9.8769
     9.9423  10.1338  12.4795  12.8124  13.0435  13.2232  13.6431  13.7442
    13.8742  13.9913  14.2550  14.7689  17.8124  18.8397  19.4833  21.0278
    22.4398  22.4994  23.1270  23.4269  23.9159  24.6452  25.4992  27.0138
    28.5396  28.7921  29.4958  29.7498

          k = 0.5000 1.1848 0.4894 (  1215 PWs)   bands (ev):

   -74.9142 -74.8663 -74.2103 -74.0495 -40.6836 -40.6602 -40.6117 -40.5676
   -40.5063 -40.4790 -40.3169 -40.0117 -39.8973 -39.8315 -39.6030 -39.5938
    -6.5620  -6.3489  -6.1769  -5.9662   4.8266   5.2674   6.1290   6.2343
     6.6794   6.8180   7.0067   7.3439   7.7715   7.8068   8.0496   8.2184
     8.3873   8.8412   8.9836   9.0708   9.2726   9.4921   9.5922   9.8319
     9.8865  10.0817  12.4384  12.9457  12.9910  13.2016  13.7048  13.7710
    13.8666  14.0106  14.2671  14.8141  17.9568  18.9985  19.3711  20.8185
    22.3058  22.5465  23.0085  23.3396  23.8276  24.2724  25.7750  27.1135
    28.6590  28.7425  29.3485  29.6758

          k = 0.5000 1.1424 0.5159 (  1212 PWs)   bands (ev):

   -74.9117 -74.8624 -74.2072 -74.0464 -40.6758 -40.6594 -40.6113 -40.5576
   -40.5017 -40.4733 -40.3164 -40.0092 -39.8918 -39.8231 -39.5917 -39.5907
    -6.5228  -6.3138  -6.1658  -5.9570   4.6417   5.0804   6.2530   6.2993
     6.7071   6.8523   7.0723   7.3809   7.6955   7.8006   8.1354   8.2791
     8.4122   8.8974   9.0014   9.0583   9.2452   9.5372   9.5716   9.7931
     9.8382  10.0405  12.4068  12.8790  13.1283  13.1825  13.7460  13.8017
    13.8673  14.0384  14.3081  14.8685  18.1212  19.1245  19.2605  20.5770
    22.2146  22.5613  22.8597  23.3891  23.6436  24.0733  26.1141  27.2229
    28.5204  28.9327  29.1385  29.7106

          k = 0.5000 1.1001 0.5425 (  1212 PWs)   bands (ev):

   -74.9105 -74.8611 -74.2067 -74.0459 -40.6716 -40.6627 -40.6122 -40.5603
   -40.4922 -40.4705 -40.3148 -40.0075 -39.9017 -39.8140 -39.5973 -39.5832
    -6.4879  -6.2830  -6.1521  -5.9468   4.4681   4.9063   6.3709   6.4072
     6.7294   6.8658   7.1496   7.4105   7.6275   7.7919   8.2122   8.3220
     8.4662   8.8806   9.0103   9.0815   9.2047   9.5539   9.5823   9.7467
     9.7981  10.0081  12.3753  12.7930  13.1451  13.2776  13.7486  13.8367
    13.8710  14.0670  14.3711  14.9293  18.2226  19.0796  19.2702  20.3271
    22.1469  22.4842  22.7432  23.4000  23.4931  23.9960  26.4685  27.3346
    28.3735  28.8209  29.2262  29.7807

          k = 0.5000 1.0578 0.5690 (  1219 PWs)   bands (ev):

   -74.9158 -74.8647 -74.2117 -74.0503 -40.6843 -40.6655 -40.6303 -40.5728
   -40.4883 -40.4813 -40.3278 -40.0162 -39.9156 -39.8180 -39.6095 -39.5859
    -6.4582  -6.2607  -6.1368  -5.9369   4.3105   4.7477   6.4529   6.4697
     6.7282   6.8663   7.2180   7.4295   7.5663   7.7826   8.3072   8.3690
     8.5111   8.7956   8.9981   9.1228   9.1674   9.5376   9.6088   9.6923
     9.7411   9.9829  12.3462  12.7087  13.1175  13.3869  13.7313  13.8670
    13.8879  14.0934  14.4383  14.9902  18.3115  18.9458  19.3650  20.0569
    22.1267  22.3283  22.6662  23.1444  23.5892  23.9588  26.8278  27.4223
    28.2456  28.6076  29.4287  29.8602

          k = 0.5000 1.0155 0.5956 (  1222 PWs)   bands (ev):

   -74.9167 -74.8674 -74.2137 -74.0528 -40.6873 -40.6684 -40.6289 -40.5886
   -40.4958 -40.4805 -40.3271 -40.0160 -39.9228 -39.8199 -39.6209 -39.5885
    -6.4336  -6.2427  -6.1224  -5.9262   4.1665   4.6110   6.5224   6.5687
     6.7494   6.8638   7.2616   7.4465   7.5209   7.7679   8.3952   8.4543
     8.5776   8.7367   8.9767   9.1296   9.1711   9.5126   9.6161   9.6364
     9.7023   9.9684  12.3217  12.6337  13.0948  13.4665  13.7079  13.8701
    13.9346  14.1173  14.5009  15.0505  18.3589  18.7922  19.4341  19.8809
    22.0682  22.2246  22.6424  22.9642  23.6928  23.9379  27.1506  27.5209
    28.1399  28.4290  29.6214  29.9416

          k = 0.5000 0.9732 0.6221 (  1221 PWs)   bands (ev):

   -74.9150 -74.8667 -74.2128 -74.0516 -40.6804 -40.6722 -40.6261 -40.5811
   -40.4966 -40.4821 -40.3281 -40.0164 -39.9143 -39.8235 -39.6141 -39.5901
    -6.4137  -6.2294  -6.1088  -5.9159   4.0574   4.5100   6.6109   6.6259
     6.7619   6.8653   7.2916   7.4618   7.5109   7.7553   8.4773   8.5635
     8.6068   8.7082   8.9497   9.1250   9.2154   9.4801   9.5716   9.6151
     9.6787   9.9803  12.2987  12.5699  13.0751  13.5171  13.6826  13.8709
    13.9918  14.1475  14.5604  15.1091  18.4189  18.6487  19.4606  19.7516
    22.0126  22.1652  22.6423  22.7966  23.7817  23.9233  27.4139  27.5991
    28.0582  28.3261  29.8087  29.9906

          k = 0.5000 0.9309 0.6487 (  1219 PWs)   bands (ev):

   -74.9133 -74.8646 -74.2113 -74.0495 -40.6773 -40.6595 -40.6305 -40.5680
   -40.4978 -40.4886 -40.3310 -40.0213 -39.8985 -39.8256 -39.6001 -39.5920
    -6.4005  -6.2201  -6.0979  -5.9077   3.9774   4.4368   6.6785   6.6946
     6.7699   6.8651   7.3029   7.4571   7.5284   7.7458   8.5678   8.5896
     8.6639   8.7306   8.9040   9.1291   9.2395   9.4439   9.5183   9.6064
     9.6726  10.0016  12.2785  12.5224  13.0597  13.5476  13.6623  13.8718
    14.0381  14.1692  14.6008  15.1547  18.4335  18.5349  19.4800  19.6701
    21.9885  22.1378  22.6434  22.7238  23.8484  23.9145  27.5622  27.6610
    28.0729  28.2486  29.9469  30.0322

          k = 0.5000 0.8886 0.6752 (  1214 PWs)   bands (ev):

   -74.9088 -74.8603 -74.2069 -74.0459 -40.6704 -40.6500 -40.6298 -40.5572
   -40.4933 -40.4824 -40.3270 -40.0151 -39.8878 -39.8209 -39.5916 -39.5863
    -6.3906  -6.2146  -6.0888  -5.9025   3.9334   4.3985   6.7157   6.7243
     6.7668   6.8636   7.3059   7.4538   7.5503   7.7419   8.5657   8.6602
     8.7333   8.7661   8.8435   9.1428   9.2566   9.4146   9.4827   9.6060
     9.6802  10.0344  12.2633  12.4940  13.0501  13.5689  13.6511  13.8755
    14.0817  14.1957  14.6377  15.1969  18.4450  18.4839  19.4731  19.6258
    22.0020  22.1408  22.6441  22.6683  23.8871  23.9116  27.6213  27.7137
    28.1632  28.2170  30.0086  30.0790

          k = 0.5000 0.8463 0.7018 (  1212 PWs)   bands (ev):

   -74.9074 -74.8574 -74.2054 -74.0432 -40.6688 -40.6443 -40.6299 -40.5408
   -40.4981 -40.4816 -40.3276 -40.0185 -39.8796 -39.8210 -39.5897 -39.5764
    -6.3923  -6.2128  -6.0907  -5.9006   3.8947   4.3583   6.7292   6.7389
     6.7640   6.8636   7.3029   7.4538   7.5551   7.7371   8.5635   8.7523
     8.7833   8.8167   8.8232   9.1295   9.2540   9.4025   9.4737   9.6009
     9.6619  10.0003  12.2580  12.4850  13.0466  13.5756  13.6476  13.8709
    14.1018  14.2066  14.6554  15.2128  18.4291  18.4583  19.4845  19.6331
    21.9966  22.1359  22.6903  22.6980  23.8974  23.9156  27.6322  27.7254
    28.1858  28.2283  30.0207  30.0961

          k = 0.4861 0.8933 0.6823 (  1214 PWs)   bands (ev):

   -74.9087 -74.8602 -74.2068 -74.0459 -40.6707 -40.6504 -40.6296 -40.5576
   -40.4951 -40.4802 -40.3261 -40.0138 -39.8882 -39.8216 -39.5917 -39.5874
    -6.3916  -6.2152  -6.0897  -5.9031   3.9320   4.3971   6.7161   6.7273
     6.7630   6.8637   7.3053   7.4550   7.5460   7.7415   8.5737   8.6497
     8.7266   8.7709   8.8497   9.1415   9.2522   9.4151   9.4859   9.6053
     9.6775  10.0317  12.2620  12.4959  13.0489  13.5675  13.6522  13.8748
    14.0861  14.1942  14.6426  15.1943  18.4524  18.4816  19.4718  19.6258
    22.0088  22.1479  22.6438  22.6737  23.8870  23.9138  27.6172  27.7080
    28.1761  28.2168  30.0029  30.0721

          k = 0.4722 0.9403 0.6628 (  1216 PWs)   bands (ev):

   -74.9111 -74.8619 -74.2086 -74.0478 -40.6769 -40.6618 -40.6266 -40.5696
   -40.4964 -40.4654 -40.3218 -40.0031 -39.9021 -39.8244 -39.6050 -39.5895
    -6.4001  -6.2229  -6.0980  -5.9102   3.9903   4.4505   6.6486   6.6935
     6.7568   6.8677   7.3063   7.4632   7.5275   7.7483   8.5420   8.6180
     8.6416   8.7523   8.9111   9.1323   9.2405   9.4507   9.5294   9.6165
     9.6781  10.0068  12.2727  12.5303  13.0551  13.5400  13.6665  13.8733
    14.0515  14.1683  14.6144  15.1459  18.4794  18.5105  19.4585  19.6715
    22.0122  22.1466  22.6501  22.7273  23.8469  23.9251  27.5595  27.6408
    28.1732  28.2068  29.9060  30.0136

          k = 0.4583 0.9873 0.6433 (  1219 PWs)   bands (ev):

   -74.9139 -74.8645 -74.2111 -74.0504 -40.6821 -40.6675 -40.6251 -40.5844
   -40.4945 -40.4685 -40.3219 -40.0059 -39.9182 -39.8196 -39.6173 -39.5881
    -6.4157  -6.2355  -6.1133  -5.9207   4.0740   4.5287   6.5836   6.6445
     6.7393   6.8738   7.2914   7.4400   7.5247   7.7581   8.4369   8.5359
     8.6321   8.7517   8.9570   9.1203   9.1942   9.4892   9.5869   9.6312
     9.6853   9.9792  12.2844  12.5862  13.0633  13.4987  13.6910  13.8719
    13.9974  14.1401  14.5655  15.0892  18.5193  18.5536  19.4304  19.7642
    22.0647  22.1895  22.6389  22.8611  23.7805  23.9490  27.4393  27.5085
    28.2064  28.2228  29.7072  29.9744

          k = 0.4444 1.0343 0.6238 (  1223 PWs)   bands (ev):

   -74.9180 -74.8670 -74.2143 -74.0533 -40.6910 -40.6732 -40.6305 -40.5857
   -40.4990 -40.4766 -40.3276 -40.0130 -39.9253 -39.8244 -39.6218 -39.5921
    -6.4339  -6.2546  -6.1313  -5.9341   4.1943   4.6425   6.5083   6.5818
     6.7037   6.8856   7.2612   7.3983   7.5508   7.7660   8.3373   8.3874
     8.5969   8.7918   8.9669   9.1357   9.1443   9.5180   9.6134   9.6796
     9.7085   9.9718  12.2950  12.6575  13.0724  13.4281  13.7179  13.8696
    13.9451  14.1164  14.5063  15.0255  18.5559  18.5986  19.3850  19.8999
    22.1340  22.2380  22.6172  23.0549  23.6929  23.9826  27.2412  27.3183
    28.2917  28.3167  29.4588  29.9199

          k = 0.4306 1.0813 0.6043 (  1225 PWs)   bands (ev):

   -74.9197 -74.8700 -74.2163 -74.0551 -40.6878 -40.6788 -40.6308 -40.5769
   -40.5056 -40.4902 -40.3339 -40.0248 -39.9204 -39.8296 -39.6157 -39.5957
    -6.4567  -6.2802  -6.1540  -5.9476   4.3417   4.7828   6.4292   6.5363
     6.6620   6.8987   7.2084   7.3584   7.5962   7.7693   8.2241   8.2745
     8.5323   8.8668   8.9700   9.0699   9.1895   9.5318   9.6032   9.7460
     9.7527   9.9936  12.3035  12.7364  13.0795  13.3216  13.7385  13.8569
    13.9088  14.0919  14.4367  14.9595  18.5710  18.6172  19.2838  20.0833
    22.2321  22.3146  22.6362  23.3052  23.5932  24.0264  26.9750  27.0841
    28.4078  28.4738  29.2066  29.8685

          k = 0.4167 1.1283 0.5848 (  1223 PWs)   bands (ev):

   -74.9191 -74.8692 -74.2150 -74.0537 -40.6869 -40.6691 -40.6337 -40.5636
   -40.5106 -40.4950 -40.3354 -40.0264 -39.9037 -39.8363 -39.6058 -39.5981
    -6.4795  -6.3139  -6.1775  -5.9596   4.5235   4.9574   6.3401   6.4731
     6.6100   6.9025   7.1299   7.3240   7.6522   7.7838   8.1138   8.2171
     8.4693   8.9314   8.9614   9.0206   9.2475   9.5425   9.5880   9.8082
     9.8176  10.0400  12.3112  12.8189  13.0819  13.1854  13.7449  13.8358
    13.8894  14.0713  14.3660  14.9014  18.5955  18.6453  19.1177  20.3235
    22.3683  22.4250  22.6777  23.4882  23.6412  24.0777  26.6978  26.8292
    28.5467  28.6150  29.0138  29.8257

          k = 0.4028 1.1753 0.5653 (  1220 PWs)   bands (ev):

   -74.9174 -74.8689 -74.2138 -74.0524 -40.6856 -40.6564 -40.6293 -40.5629
   -40.5089 -40.4957 -40.3315 -40.0250 -39.8954 -39.8363 -39.6031 -39.5950
    -6.5051  -6.3550  -6.2039  -5.9705   4.7147   5.1404   6.2512   6.4354
     6.5560   6.8816   7.0266   7.3004   7.7123   7.8110   8.0357   8.1775
     8.4135   8.8649   8.9451   9.0748   9.2964   9.5574   9.5649   9.8677
     9.8761  10.0866  12.3190  12.8978  13.0013  13.0994  13.7078  13.8115
    13.8818  14.0529  14.3136  14.8517  18.5712  18.6215  18.9970  20.6048
    22.5215  22.5584  22.7636  23.3889  24.0474  24.1417  26.4412  26.5553
    28.4958  28.7171  29.0593  29.8531

          k = 0.3889 1.2224 0.5458 (  1217 PWs)   bands (ev):

   -74.9166 -74.8676 -74.2126 -74.0513 -40.6796 -40.6573 -40.6241 -40.5627
   -40.5056 -40.4905 -40.3286 -40.0238 -39.8974 -39.8301 -39.5987 -39.5926
    -6.5320  -6.4027  -6.2316  -5.9804   4.9177   5.3363   6.1509   6.4218
     6.5130   6.8305   6.9195   7.2949   7.7725   7.8573   7.9315   8.1268
     8.3495   8.7458   8.9216   9.1573   9.3347   9.5357   9.5714   9.9221
     9.9438  10.1512  12.3269  12.8285  12.9797  13.0975  13.6378  13.7942
    13.8837  14.0411  14.2982  14.8150  18.5550  18.5928  18.8367  20.8619
    22.6061  22.7944  22.9343  23.2953  24.2145  24.5424  26.2067  26.3170
    28.2383  28.8786  29.2935  29.8702

          k = 0.3750 1.2694 0.5263 (  1216 PWs)   bands (ev):

   -74.9175 -74.8684 -74.2130 -74.0514 -40.6895 -40.6486 -40.6225 -40.5562
   -40.5069 -40.4963 -40.3295 -40.0253 -39.8908 -39.8361 -39.6056 -39.5838
    -6.5562  -6.4568  -6.2558  -5.9878   5.1287   5.5461   6.0425   6.4068
     6.4668   6.7478   6.7975   7.3110   7.8039   7.8663   7.9487   8.1184
     8.2804   8.6227   8.9060   9.2343   9.3618   9.5191   9.5871   9.9534
    10.0070  10.2126  12.3327  12.6737  13.0330  13.0968  13.5500  13.7776
    13.8926  14.0249  14.2999  14.7779  18.4479  18.5150  18.6646  21.0672
    22.6583  23.0393  23.1665  23.2087  24.3003  25.0273  26.0047  26.0964
    28.0147  29.0042  29.5575  29.8596

     Writing output data file espresso.save

     init_run     :      5.22s CPU      5.21s WALL (       1 calls)
     electrons    :    233.92s CPU    265.64s WALL (       1 calls)

     Called by init_run:
     wfcinit      :      1.75s CPU      1.63s WALL (       1 calls)
     wfcinit:atom :      0.03s CPU      0.22s WALL (     178 calls)
     wfcinit:wfcr :     11.66s CPU     15.89s WALL (     178 calls)
     potinit      :      0.42s CPU      0.21s WALL (       1 calls)

     Called by electrons:
     c_bands      :    233.89s CPU    265.61s WALL (       1 calls)
     v_of_rho     :      0.00s CPU      0.01s WALL (       1 calls)
     v_h          :      0.00s CPU      0.00s WALL (       1 calls)
     v_xc         :      0.00s CPU      0.01s WALL (       1 calls)
     newd         :      0.19s CPU      0.19s WALL (       1 calls)
     PAW_pot      :      0.39s CPU      0.17s WALL (       1 calls)

     Called by c_bands:
     init_us_2    :      0.36s CPU      0.46s WALL (     356 calls)
     cegterg      :    221.19s CPU    248.43s WALL (     178 calls)

     Called by sum_band:

     Called by *egterg:
     h_psi        :     64.30s CPU     88.39s WALL (    2595 calls)
     s_psi        :      3.66s CPU      1.80s WALL (    2773 calls)
     g_psi        :      0.11s CPU      0.14s WALL (    2239 calls)
     cdiaghg      :    142.16s CPU    159.33s WALL (    2417 calls)
     cegterg:over :     10.36s CPU      6.18s WALL (    2239 calls)
     cegterg:upda :      4.89s CPU      2.91s WALL (    2239 calls)
     cegterg:last :      3.48s CPU      1.63s WALL (     368 calls)

     Called by h_psi:
     h_psi:pot    :     62.20s CPU     86.44s WALL (    2595 calls)
     h_psi:calbec :      4.08s CPU      2.54s WALL (    2595 calls)
     vloc_psi     :     54.81s CPU     82.36s WALL (    2595 calls)
     add_vuspsi   :      3.30s CPU      1.53s WALL (    2595 calls)
     vhpsi        :      1.94s CPU      1.77s WALL (    2595 calls)

     General routines
     calbec       :      5.42s CPU      3.62s WALL (    5368 calls)
     fft          :      0.02s CPU      0.04s WALL (       9 calls)
     ffts         :      0.00s CPU      0.01s WALL (       2 calls)
     fftw         :     45.16s CPU     67.93s WALL (  188968 calls)
     interpolate  :      0.02s CPU      0.01s WALL (       2 calls)
     davcio       :      0.02s CPU      0.08s WALL (     712 calls)

     Parallel routines
     fft_scatter  :     11.83s CPU     12.71s WALL (  188979 calls)

     Hubbard U routines
     vhpsi        :      1.94s CPU      1.77s WALL (    2595 calls)

     PAW routines
     PAW_pot      :      0.39s CPU      0.17s WALL (       1 calls)

     PWSCF        :  4m 1.86s CPU     4m35.48s WALL


   This run was terminated on:   2:33:30  10Jan2024            

=------------------------------------------------------------------------------=
   JOB DONE.
=------------------------------------------------------------------------------=
