
     Program PWSCF v.6.1 starts on 10Jan2024 at  2:13:25 

     This program is part of the open-source Quantum ESPRESSO suite
     for quantum simulation of materials; please cite
         "P. Giannozzi et al., J. Phys.:Condens. Matter 21 395502 (2009);
          URL http://www.quantum-espresso.org", 
     in publications or presentations arising from this work. More details at
     http://www.quantum-espresso.org/quote

     Parallel version (MPI & OpenMP), running on      50 processor cores
     Number of MPI processes:                 5
     Threads/MPI process:                    10
     R & G space division:  proc/nbgrp/npool/nimage =       5
     Reading input from espresso.in

     Current dimensions of program PWSCF are:
     Max number of different atomic species (ntypx) = 10
     Max number of k-points (npk) =  40000
     Max angular momentum in pseudopotentials (lmaxx) =  3
               file Fe.pz-spn-kjpaw_psl.0.2.1.UPF: wavefunction(s)  3D renormalized
               file Fe.pz-spn-kjpaw_psl.0.2.1.UPF: wavefunction(s)  3D renormalized
               file Fe.pz-spn-kjpaw_psl.0.2.1.UPF: wavefunction(s)  3D renormalized
               file Fe.pz-spn-kjpaw_psl.0.2.1.UPF: wavefunction(s)  3D renormalized
               file O.pz-n-kjpaw_psl.0.1.UPF: wavefunction(s)  2P renormalized

     Subspace diagonalization in iterative solution of the eigenvalue problem:
     a serial algorithm will be used


     Parallelization info
     --------------------
     sticks:   dense  smooth     PW     G-vecs:    dense   smooth      PW
     Min         216      95     32                 6525     1940     367
     Max         218      96     33                 6525     1942     370
     Sum        1085     479    161                32625     9705    1841


     Title: 
     zx(SCF)                                                                    


     bravais-lattice index     =          -12
     lattice parameter (alat)  =      10.1022  a.u.
     unit-cell volume          =     573.5565 (a.u.)^3
     number of atoms/cell      =            8
     number of atomic types    =            5
     number of electrons       =        88.00
     number of Kohn-Sham states=           53
     kinetic-energy cutoff     =      25.0000  Ry
     charge density cutoff     =     225.0000  Ry
     convergence threshold     =      1.0E-06
     mixing beta               =       0.4000
     number of iterations used =            8  plain     mixing
     Exchange-correlation      =  SLA  PZ   NOGX NOGC ( 1  1  0  0 0 0)

     celldm(1)=  10.102230  celldm(2)=   0.590841  celldm(3)=   0.994962
     celldm(4)=   0.000000  celldm(5)=  -0.323174  celldm(6)=   0.000000

     crystal axes: (cart. coord. in units of alat)
               a(1) = (   1.000000   0.000000   0.000000 )  
               a(2) = (   0.000000   0.590841   0.000000 )  
               a(3) = (  -0.321546   0.000000   0.941572 )  

     reciprocal axes: (cart. coord. in units 2 pi/alat)
               b(1) = (  1.000000 -0.000000  0.341499 )  
               b(2) = (  0.000000  1.692502 -0.000000 )  
               b(3) = (  0.000000  0.000000  1.062053 )  


     PseudoPot. # 1 for Fe read from file:
     C:\Users\didar\.burai\.pseudopot/Fe.pz-spn-kjpaw_psl.0.2.1.UPF
     MD5 check sum: 27df73d5ef6bc58e09d33ce26ec3cbe0
     Pseudo is Projector augmented-wave + core cor, Zval = 16.0
     Generated using "atomic" code by A. Dal Corso  v.5.0.99 svn rev. 10869
     Shape of augmentation charge: PSQ
     Using radial grid of 1191 points,  6 beta functions with: 
                l(1) =   0
                l(2) =   0
                l(3) =   1
                l(4) =   1
                l(5) =   2
                l(6) =   2
     Q(r) pseudized with 0 coefficients 


     PseudoPot. # 2 for Fe read from file:
     C:\Users\didar\.burai\.pseudopot/Fe.pz-spn-kjpaw_psl.0.2.1.UPF
     MD5 check sum: 27df73d5ef6bc58e09d33ce26ec3cbe0
     Pseudo is Projector augmented-wave + core cor, Zval = 16.0
     Generated using "atomic" code by A. Dal Corso  v.5.0.99 svn rev. 10869
     Shape of augmentation charge: PSQ
     Using radial grid of 1191 points,  6 beta functions with: 
                l(1) =   0
                l(2) =   0
                l(3) =   1
                l(4) =   1
                l(5) =   2
                l(6) =   2
     Q(r) pseudized with 0 coefficients 


     PseudoPot. # 3 for Fe read from file:
     C:\Users\didar\.burai\.pseudopot/Fe.pz-spn-kjpaw_psl.0.2.1.UPF
     MD5 check sum: 27df73d5ef6bc58e09d33ce26ec3cbe0
     Pseudo is Projector augmented-wave + core cor, Zval = 16.0
     Generated using "atomic" code by A. Dal Corso  v.5.0.99 svn rev. 10869
     Shape of augmentation charge: PSQ
     Using radial grid of 1191 points,  6 beta functions with: 
                l(1) =   0
                l(2) =   0
                l(3) =   1
                l(4) =   1
                l(5) =   2
                l(6) =   2
     Q(r) pseudized with 0 coefficients 


     PseudoPot. # 4 for Fe read from file:
     C:\Users\didar\.burai\.pseudopot/Fe.pz-spn-kjpaw_psl.0.2.1.UPF
     MD5 check sum: 27df73d5ef6bc58e09d33ce26ec3cbe0
     Pseudo is Projector augmented-wave + core cor, Zval = 16.0
     Generated using "atomic" code by A. Dal Corso  v.5.0.99 svn rev. 10869
     Shape of augmentation charge: PSQ
     Using radial grid of 1191 points,  6 beta functions with: 
                l(1) =   0
                l(2) =   0
                l(3) =   1
                l(4) =   1
                l(5) =   2
                l(6) =   2
     Q(r) pseudized with 0 coefficients 


     PseudoPot. # 5 for  O read from file:
     C:\Users\didar\.burai\.pseudopot/O.pz-n-kjpaw_psl.0.1.UPF
     MD5 check sum: ca354609ecacc13f4887e8db23a80a40
     Pseudo is Projector augmented-wave + core cor, Zval =  6.0
     Generated using "atomic" code by A. Dal Corso  v.5.0.99 svn rev. 10869
     Shape of augmentation charge: BESSEL
     Using radial grid of 1095 points,  4 beta functions with: 
                l(1) =   0
                l(2) =   0
                l(3) =   1
                l(4) =   1
     Q(r) pseudized with 0 coefficients 


     atomic species   valence    mass     pseudopotential
        Fe            16.00    55.84500     Fe( 1.00)
        Fe3           16.00    55.84500     Fe( 1.00)
        Fe4           16.00    55.84500     Fe( 1.00)
        Fe5           16.00    55.84500     Fe( 1.00)
        O              6.00    15.99940      O( 1.00)

     Starting magnetic structure 
     atomic species   magnetization
        Fe           0.200
        Fe3          0.000
        Fe4          0.000
        Fe5          0.000
        O            0.000


     Simplified LDA+U calculation (l_max = 2) with parameters (eV):
     atomic species    L          U    alpha       J0     beta
        Fe             2     5.8739   0.0000   0.0000   0.0000
        Fe3            2     5.7263   0.0000   0.0000   0.0000
        Fe4            2     5.8957   0.0000   0.0000   0.0000
        Fe5            2     5.8588   0.0000   0.0000   0.0000



      4 Sym. Ops., with inversion, found


                                    s                        frac. trans.

      isym =  1     identity                                     

 cryst.   s( 1) = (     1          0          0      )
                  (     0          1          0      )
                  (     0          0          1      )

 cart.    s( 1) = (  1.0000000  0.0000000  0.0000000 )
                  (  0.0000000  1.0000000  0.0000000 )
                  (  0.0000000  0.0000000  1.0000000 )


      isym =  2     180 deg rotation - cart. axis [0,1,0]        

 cryst.   s( 2) = (    -1          0          0      )
                  (     0          1          0      )
                  (     0          0         -1      )

 cart.    s( 2) = ( -1.0000000  0.0000000 -0.0000000 )
                  (  0.0000000  1.0000000  0.0000000 )
                  (  0.0000000  0.0000000 -1.0000000 )


      isym =  3     inversion                                    

 cryst.   s( 3) = (    -1          0          0      )
                  (     0         -1          0      )
                  (     0          0         -1      )

 cart.    s( 3) = ( -1.0000000  0.0000000 -0.0000000 )
                  (  0.0000000 -1.0000000  0.0000000 )
                  (  0.0000000  0.0000000 -1.0000000 )


      isym =  4     inv. 180 deg rotation - cart. axis [0,1,0]   

 cryst.   s( 4) = (     1          0          0      )
                  (     0         -1          0      )
                  (     0          0          1      )

 cart.    s( 4) = (  1.0000000  0.0000000  0.0000000 )
                  (  0.0000000 -1.0000000  0.0000000 )
                  (  0.0000000  0.0000000  1.0000000 )


     point group C_2h (2/m) 
     there are  4 classes
     the character table:

       E     C2    i     s_h  
A_g    1.00  1.00  1.00  1.00
B_g    1.00 -1.00  1.00 -1.00
A_u    1.00  1.00 -1.00 -1.00
B_u    1.00 -1.00 -1.00  1.00

     the symmetry operations in each class and the name of the first element:

     E        1
          identity                                               
     C2       2
          180 deg rotation - cart. axis [0,1,0]                  
     i        3
          inversion                                              
     s_h      4
          inv. 180 deg rotation - cart. axis [0,1,0]             

   Cartesian axes

     site n.     atom                  positions (alat units)
         1           Fe  tau(   1) = (   0.0000000   0.0000000   0.0000000  )
         2           Fe3 tau(   2) = (   0.3392292   0.0000000   0.4707874  )
         3           Fe4 tau(   3) = (   0.4999998   0.2954206   0.0000000  )
         4           Fe5 tau(   4) = (  -0.1607707   0.2954206   0.4707874  )
         5           O   tau(   5) = (   0.6897287   0.0000000   0.2369702  )
         6           O   tau(   6) = (  -0.0112704   0.0000000   0.7046043  )
         7           O   tau(   7) = (   0.1897289   0.2954206   0.2369702  )
         8           O   tau(   8) = (   0.4887294   0.2954206   0.7046043  )

   Crystallographic axes

     site n.     atom                  positions (cryst. coord.)
         1           Fe  tau(   1) = (  0.0000000  0.0000000  0.0000000  )
         2           Fe3 tau(   2) = (  0.5000026  0.0000000  0.5000013  )
         3           Fe4 tau(   3) = (  0.4999998  0.5000000  0.0000000  )
         4           Fe5 tau(   4) = (  0.0000028  0.5000000  0.5000013  )
         5           O   tau(   5) = (  0.7706538  0.0000000  0.2516750  )
         6           O   tau(   6) = (  0.2293513  0.0000000  0.7483273  )
         7           O   tau(   7) = (  0.2706540  0.5000000  0.2516750  )
         8           O   tau(   8) = (  0.7293511  0.5000000  0.7483273  )

     number of k points=    12  Marzari-Vanderbilt smearing, width (Ry)=  0.0100
                       cart. coord. in units 2pi/alat
        k(    1) = (   0.0000000   0.0000000   0.0000000), wk =   0.0625000
        k(    2) = (   0.0000000   0.0000000  -0.5310266), wk =   0.0625000
        k(    3) = (   0.0000000   0.4231256   0.0000000), wk =   0.1250000
        k(    4) = (   0.0000000   0.4231256  -0.5310266), wk =   0.1250000
        k(    5) = (   0.0000000  -0.8462511   0.0000000), wk =   0.0625000
        k(    6) = (   0.0000000  -0.8462511  -0.5310266), wk =   0.0625000
        k(    7) = (  -0.5000000   0.0000000  -0.1707495), wk =   0.0625000
        k(    8) = (  -0.5000000   0.0000000  -0.7017761), wk =   0.0625000
        k(    9) = (  -0.5000000   0.4231256  -0.1707495), wk =   0.1250000
        k(   10) = (  -0.5000000   0.4231256  -0.7017761), wk =   0.1250000
        k(   11) = (  -0.5000000  -0.8462511  -0.1707495), wk =   0.0625000
        k(   12) = (  -0.5000000  -0.8462511  -0.7017761), wk =   0.0625000

                       cryst. coord.
        k(    1) = (   0.0000000   0.0000000   0.0000000), wk =   0.0625000
        k(    2) = (   0.0000000   0.0000000  -0.5000000), wk =   0.0625000
        k(    3) = (   0.0000000   0.2500000   0.0000000), wk =   0.1250000
        k(    4) = (   0.0000000   0.2500000  -0.5000000), wk =   0.1250000
        k(    5) = (   0.0000000  -0.5000000   0.0000000), wk =   0.0625000
        k(    6) = (   0.0000000  -0.5000000  -0.5000000), wk =   0.0625000
        k(    7) = (  -0.5000000   0.0000000  -0.0000000), wk =   0.0625000
        k(    8) = (  -0.5000000   0.0000000  -0.5000000), wk =   0.0625000
        k(    9) = (  -0.5000000   0.2500000  -0.0000000), wk =   0.1250000
        k(   10) = (  -0.5000000   0.2500000  -0.5000000), wk =   0.1250000
        k(   11) = (  -0.5000000  -0.5000000  -0.0000000), wk =   0.0625000
        k(   12) = (  -0.5000000  -0.5000000  -0.5000000), wk =   0.0625000

     Dense  grid:    32625 G-vectors     FFT dimensions: (  50,  30,  48)

     Smooth grid:     9705 G-vectors     FFT dimensions: (  36,  20,  32)

     Estimated max dynamical RAM per process >      14.94MB

     Estimated total allocated dynamical RAM >      74.71MB
     Generating pointlists ...
     new r_m :   0.1610 (alat units)  1.6269 (a.u.) for type    1
     new r_m :   0.1672 (alat units)  1.6891 (a.u.) for type    2
     new r_m :   0.1610 (alat units)  1.6269 (a.u.) for type    3
     new r_m :   0.1672 (alat units)  1.6891 (a.u.) for type    4
     new r_m :   0.1610 (alat units)  1.6269 (a.u.) for type    5

     Check: negative/imaginary core charge=   -0.000220    0.000000

     Initial potential from superposition of free atoms

     starting charge   87.99860, renormalised to   88.00000
 --- in v_hubbard ---
Hubbard energy    1.7145
 -------
     Number of +U iterations with fixed ns =  0
     Starting occupations:
 --- enter write_ns ---
 LDA+U parameters:
U( 1)     =  5.87390000
alpha( 1) =  0.00000000
U( 2)     =  5.72630000
alpha( 2) =  0.00000000
U( 3)     =  5.89570000
alpha( 3) =  0.00000000
U( 4)     =  5.85880000
alpha( 4) =  0.00000000
atom    1   Tr[ns(na)] (up, down, total) =   5.00000  1.00000  6.00000
   spin  1
    eigenvalues: 
  1.000  1.000  1.000  1.000  1.000
    eigenvectors:
  1.000  0.000  0.000  0.000  0.000
  0.000  1.000  0.000  0.000  0.000
  0.000  0.000  1.000  0.000  0.000
  0.000  0.000  0.000  1.000  0.000
  0.000  0.000  0.000  0.000  1.000
    occupations:
  1.000  0.000  0.000  0.000  0.000
  0.000  1.000  0.000  0.000  0.000
  0.000  0.000  1.000  0.000  0.000
  0.000  0.000  0.000  1.000  0.000
  0.000  0.000  0.000  0.000  1.000
   spin  2
    eigenvalues: 
  0.200  0.200  0.200  0.200  0.200
    eigenvectors:
  1.000  0.000  0.000  0.000  0.000
  0.000  1.000  0.000  0.000  0.000
  0.000  0.000  1.000  0.000  0.000
  0.000  0.000  0.000  1.000  0.000
  0.000  0.000  0.000  0.000  1.000
    occupations:
  0.200  0.000  0.000  0.000  0.000
  0.000  0.200  0.000  0.000  0.000
  0.000  0.000  0.200  0.000  0.000
  0.000  0.000  0.000  0.200  0.000
  0.000  0.000  0.000  0.000  0.200
atomic mag. moment =     4.000000
atom    2   Tr[ns(na)] (up, down, total) =   3.00000  3.00000  6.00000
   spin  1
    eigenvalues: 
  0.600  0.600  0.600  0.600  0.600
    eigenvectors:
  1.000  0.000  0.000  0.000  0.000
  0.000  1.000  0.000  0.000  0.000
  0.000  0.000  1.000  0.000  0.000
  0.000  0.000  0.000  1.000  0.000
  0.000  0.000  0.000  0.000  1.000
    occupations:
  0.600  0.000  0.000  0.000  0.000
  0.000  0.600  0.000  0.000  0.000
  0.000  0.000  0.600  0.000  0.000
  0.000  0.000  0.000  0.600  0.000
  0.000  0.000  0.000  0.000  0.600
   spin  2
    eigenvalues: 
  0.600  0.600  0.600  0.600  0.600
    eigenvectors:
  1.000  0.000  0.000  0.000  0.000
  0.000  1.000  0.000  0.000  0.000
  0.000  0.000  1.000  0.000  0.000
  0.000  0.000  0.000  1.000  0.000
  0.000  0.000  0.000  0.000  1.000
    occupations:
  0.600  0.000  0.000  0.000  0.000
  0.000  0.600  0.000  0.000  0.000
  0.000  0.000  0.600  0.000  0.000
  0.000  0.000  0.000  0.600  0.000
  0.000  0.000  0.000  0.000  0.600
atomic mag. moment =     0.000000
atom    3   Tr[ns(na)] (up, down, total) =   3.00000  3.00000  6.00000
   spin  1
    eigenvalues: 
  0.600  0.600  0.600  0.600  0.600
    eigenvectors:
  1.000  0.000  0.000  0.000  0.000
  0.000  1.000  0.000  0.000  0.000
  0.000  0.000  1.000  0.000  0.000
  0.000  0.000  0.000  1.000  0.000
  0.000  0.000  0.000  0.000  1.000
    occupations:
  0.600  0.000  0.000  0.000  0.000
  0.000  0.600  0.000  0.000  0.000
  0.000  0.000  0.600  0.000  0.000
  0.000  0.000  0.000  0.600  0.000
  0.000  0.000  0.000  0.000  0.600
   spin  2
    eigenvalues: 
  0.600  0.600  0.600  0.600  0.600
    eigenvectors:
  1.000  0.000  0.000  0.000  0.000
  0.000  1.000  0.000  0.000  0.000
  0.000  0.000  1.000  0.000  0.000
  0.000  0.000  0.000  1.000  0.000
  0.000  0.000  0.000  0.000  1.000
    occupations:
  0.600  0.000  0.000  0.000  0.000
  0.000  0.600  0.000  0.000  0.000
  0.000  0.000  0.600  0.000  0.000
  0.000  0.000  0.000  0.600  0.000
  0.000  0.000  0.000  0.000  0.600
atomic mag. moment =     0.000000
atom    4   Tr[ns(na)] (up, down, total) =   3.00000  3.00000  6.00000
   spin  1
    eigenvalues: 
  0.600  0.600  0.600  0.600  0.600
    eigenvectors:
  1.000  0.000  0.000  0.000  0.000
  0.000  1.000  0.000  0.000  0.000
  0.000  0.000  1.000  0.000  0.000
  0.000  0.000  0.000  1.000  0.000
  0.000  0.000  0.000  0.000  1.000
    occupations:
  0.600  0.000  0.000  0.000  0.000
  0.000  0.600  0.000  0.000  0.000
  0.000  0.000  0.600  0.000  0.000
  0.000  0.000  0.000  0.600  0.000
  0.000  0.000  0.000  0.000  0.600
   spin  2
    eigenvalues: 
  0.600  0.600  0.600  0.600  0.600
    eigenvectors:
  1.000  0.000  0.000  0.000  0.000
  0.000  1.000  0.000  0.000  0.000
  0.000  0.000  1.000  0.000  0.000
  0.000  0.000  0.000  1.000  0.000
  0.000  0.000  0.000  0.000  1.000
    occupations:
  0.600  0.000  0.000  0.000  0.000
  0.000  0.600  0.000  0.000  0.000
  0.000  0.000  0.600  0.000  0.000
  0.000  0.000  0.000  0.600  0.000
  0.000  0.000  0.000  0.000  0.600
atomic mag. moment =     0.000000
N of occupied +U levels =   24.000000
 --- exit write_ns ---
 Atomic wfc used for LDA+U Projector are orthogonalized
     Starting wfc are   68 randomized atomic wfcs
     Checking if some PAW data can be deallocated... 
       node    0, deallocated PAW data for type:  3
       node    0, deallocated PAW data for type:  4
       node    0, deallocated PAW data for type:  5
       node    1, deallocated PAW data for type:  1
       node    1, deallocated PAW data for type:  2
       node    1, deallocated PAW data for type:  5
       node    2, deallocated PAW data for type:  1
       node    2, deallocated PAW data for type:  2
       node    2, deallocated PAW data for type:  3
       node    2, deallocated PAW data for type:  4
       node    3, deallocated PAW data for type:  1
       node    3, deallocated PAW data for type:  2
       node    3, deallocated PAW data for type:  3
       node    3, deallocated PAW data for type:  4
       node    4, deallocated PAW data for type:  1
       node    4, deallocated PAW data for type:  2
       node    4, deallocated PAW data for type:  3
       node    4, deallocated PAW data for type:  4

     total cpu time spent up to now is        9.4 secs

     Self-consistent Calculation

     iteration #  1     ecut=    25.00 Ry     beta=0.40
     Davidson diagonalization with overlap
     ethr =  1.00E-02,  avg # of iterations =  2.0
 --- enter write_ns ---
 LDA+U parameters:
U( 1)     =  5.87390000
alpha( 1) =  0.00000000
U( 2)     =  5.72630000
alpha( 2) =  0.00000000
U( 3)     =  5.89570000
alpha( 3) =  0.00000000
U( 4)     =  5.85880000
alpha( 4) =  0.00000000
atom    1   Tr[ns(na)] (up, down, total) =   4.93675  0.44430  5.38105
   spin  1
    eigenvalues: 
  0.969  0.984  0.994  0.994  0.995
    eigenvectors:
  0.004  0.000  0.835  0.000  0.162
  0.706  0.000  0.029  0.000  0.265
  0.000  0.590  0.000  0.410  0.000
  0.290  0.000  0.136  0.000  0.574
  0.000  0.410  0.000  0.590  0.000
    occupations:
  0.994 -0.001 -0.000 -0.001  0.000
 -0.001  0.977 -0.000 -0.012  0.000
 -0.000 -0.000  0.988  0.000  0.005
 -0.001 -0.012  0.000  0.987 -0.000
  0.000  0.000  0.005 -0.000  0.990
   spin  2
    eigenvalues: 
  0.049  0.065  0.065  0.111  0.154
    eigenvectors:
  0.305  0.692  0.000  0.000  0.003
  0.238  0.074  0.000  0.000  0.688
  0.000  0.000  0.371  0.629  0.000
  0.456  0.235  0.000  0.000  0.309
  0.000  0.000  0.629  0.371  0.000
    occupations:
  0.060  0.008 -0.000 -0.004  0.000
  0.008  0.122 -0.000  0.046  0.000
 -0.000 -0.000  0.094  0.000 -0.022
 -0.004  0.046  0.000  0.085 -0.000
  0.000  0.000 -0.022 -0.000  0.082
atomic mag. moment =     4.492451
atom    2   Tr[ns(na)] (up, down, total) =   3.59870  3.48215  7.08085
   spin  1
    eigenvalues: 
  0.383  0.412  0.903  0.917  0.985
    eigenvectors:
  0.000  0.000  0.702  0.000  0.297
  0.626  0.000  0.120  0.000  0.254
  0.000  0.692  0.000  0.308  0.000
  0.374  0.000  0.178  0.000  0.448
  0.000  0.308  0.000  0.692  0.000
    occupations:
  0.927 -0.014  0.000  0.036  0.000
 -0.014  0.598 -0.000 -0.279  0.000
  0.000 -0.000  0.567  0.000  0.233
  0.036 -0.279  0.000  0.745 -0.000
  0.000  0.000  0.233 -0.000  0.761
   spin  2
    eigenvalues: 
  0.326  0.367  0.897  0.913  0.979
    eigenvectors:
  0.001  0.000  0.684  0.000  0.316
  0.654  0.000  0.120  0.000  0.226
  0.000  0.685  0.000  0.315  0.000
  0.346  0.000  0.196  0.000  0.458
  0.000  0.315  0.000  0.685  0.000
    occupations:
  0.923 -0.011  0.000  0.039  0.000
 -0.011  0.542 -0.000 -0.298  0.000
  0.000 -0.000  0.539  0.000  0.254
  0.039 -0.298  0.000  0.737 -0.000
  0.000  0.000  0.254 -0.000  0.741
atomic mag. moment =     0.116545
atom    3   Tr[ns(na)] (up, down, total) =   3.83879  3.80308  7.64187
   spin  1
    eigenvalues: 
  0.459  0.533  0.915  0.957  0.975
    eigenvectors:
  0.000  0.000  0.363  0.637  0.000
  0.640  0.000  0.230  0.130  0.000
  0.000  0.572  0.000  0.000  0.428
  0.360  0.000  0.407  0.233  0.000
  0.000  0.428  0.000  0.000  0.572
    occupations:
  0.942  0.012 -0.000 -0.017  0.000
  0.012  0.629 -0.000 -0.226  0.000
 -0.000 -0.000  0.722  0.000  0.219
 -0.017 -0.226  0.000  0.761 -0.000
  0.000  0.000  0.219 -0.000  0.786
   spin  2
    eigenvalues: 
  0.466  0.526  0.914  0.937  0.961
    eigenvectors:
  0.000  0.000  0.369  0.631  0.000
  0.642  0.000  0.231  0.126  0.000
  0.000  0.530  0.000  0.000  0.470
  0.357  0.000  0.400  0.243  0.000
  0.000  0.470  0.000  0.000  0.530
    occupations:
  0.929  0.002 -0.000 -0.012  0.000
  0.002  0.629 -0.000 -0.219  0.000
 -0.000 -0.000  0.730  0.000  0.217
 -0.012 -0.219  0.000  0.759 -0.000
  0.000  0.000  0.217 -0.000  0.756
atomic mag. moment =     0.035711
atom    4   Tr[ns(na)] (up, down, total) =   3.82585  3.80539  7.63124
   spin  1
    eigenvalues: 
  0.452  0.514  0.916  0.958  0.985
    eigenvectors:
  0.000  0.000  0.152  0.848  0.000
  0.000  0.536  0.400  0.064  0.000
  0.739  0.000  0.000  0.000  0.261
  0.000  0.464  0.448  0.088  0.000
  0.261  0.000  0.000  0.000  0.739
    occupations:
  0.952  0.004 -0.000 -0.017  0.000
  0.004  0.703 -0.000 -0.204  0.000
 -0.000 -0.000  0.591  0.000  0.234
 -0.017 -0.204  0.000  0.733 -0.000
  0.000  0.000  0.234 -0.000  0.846
   spin  2
    eigenvalues: 
  0.451  0.519  0.915  0.945  0.976
    eigenvectors:
  0.000  0.000  0.164  0.836  0.000
  0.000  0.529  0.397  0.074  0.000
  0.765  0.000  0.000  0.000  0.235
  0.000  0.471  0.439  0.090  0.000
  0.235  0.000  0.000  0.000  0.765
    occupations:
  0.940  0.005 -0.000 -0.011  0.000
  0.005  0.707 -0.000 -0.200  0.000
 -0.000 -0.000  0.574  0.000  0.223
 -0.011 -0.200  0.000  0.731 -0.000
  0.000  0.000  0.223 -0.000  0.853
atomic mag. moment =     0.020457
N of occupied +U levels =   27.735009
 --- exit write_ns ---

     negative rho (up, down):  0.000E+00 4.391E-04
 --- in v_hubbard ---
Hubbard energy    0.9332
 -------

     total cpu time spent up to now is       15.9 secs

     total energy              =   -1456.81211112 Ry
     Harris-Foulkes estimate   =   -1457.35182125 Ry
     estimated scf accuracy    <       2.10495470 Ry

     total magnetization       =     5.00 Bohr mag/cell
     absolute magnetization    =     5.02 Bohr mag/cell

     iteration #  2     ecut=    25.00 Ry     beta=0.40
     Davidson diagonalization with overlap
     ethr =  2.39E-03,  avg # of iterations =  2.7
 --- enter write_ns ---
 LDA+U parameters:
U( 1)     =  5.87390000
alpha( 1) =  0.00000000
U( 2)     =  5.72630000
alpha( 2) =  0.00000000
U( 3)     =  5.89570000
alpha( 3) =  0.00000000
U( 4)     =  5.85880000
alpha( 4) =  0.00000000
atom    1   Tr[ns(na)] (up, down, total) =   4.94342  4.95119  9.89461
   spin  1
    eigenvalues: 
  0.988  0.988  0.989  0.989  0.989
    eigenvectors:
  0.004  0.000  0.696  0.300  0.000
  0.754  0.000  0.050  0.196  0.000
  0.000  0.596  0.000  0.000  0.404
  0.242  0.000  0.254  0.504  0.000
  0.000  0.404  0.000  0.000  0.596
    occupations:
  0.989 -0.000 -0.000  0.000  0.000
 -0.000  0.988 -0.000 -0.000  0.000
 -0.000 -0.000  0.989  0.000  0.000
  0.000 -0.000  0.000  0.989 -0.000
  0.000  0.000  0.000 -0.000  0.989
   spin  2
    eigenvalues: 
  0.987  0.989  0.991  0.992  0.992
    eigenvectors:
  0.003  0.000  0.669  0.328  0.000
  0.700  0.000  0.076  0.224  0.000
  0.000  0.607  0.000  0.000  0.393
  0.297  0.000  0.255  0.447  0.000
  0.000  0.393  0.000  0.000  0.607
    occupations:
  0.991 -0.000 -0.000  0.000  0.000
 -0.000  0.988 -0.000 -0.002  0.000
 -0.000 -0.000  0.990  0.000  0.001
  0.000 -0.002  0.000  0.990 -0.000
  0.000  0.000  0.001 -0.000  0.991
atomic mag. moment =    -0.007765
atom    2   Tr[ns(na)] (up, down, total) =   3.59839  3.50026  7.09864
   spin  1
    eigenvalues: 
  0.302  0.318  0.992  0.993  0.995
    eigenvectors:
  0.000  0.000  0.359  0.641  0.000
  0.617  0.000  0.243  0.140  0.000
  0.000  0.687  0.000  0.000  0.313
  0.383  0.000  0.398  0.219  0.000
  0.000  0.313  0.000  0.000  0.687
    occupations:
  0.992  0.003  0.000  0.002  0.000
  0.003  0.566 -0.000 -0.335  0.000
  0.000 -0.000  0.530  0.000  0.314
  0.002 -0.335  0.000  0.728 -0.000
  0.000  0.000  0.314 -0.000  0.783
   spin  2
    eigenvalues: 
  0.236  0.286  0.992  0.992  0.994
    eigenvectors:
  0.000  0.000  0.650  0.350  0.000
  0.641  0.000  0.121  0.238  0.000
  0.000  0.683  0.000  0.000  0.317
  0.359  0.000  0.229  0.412  0.000
  0.000  0.317  0.000  0.000  0.683
    occupations:
  0.992  0.006  0.000  0.004  0.000
  0.006  0.507 -0.000 -0.363  0.000
  0.000 -0.000  0.511  0.000  0.330
  0.004 -0.363  0.000  0.721 -0.000
  0.000  0.000  0.330 -0.000  0.770
atomic mag. moment =     0.098127
atom    3   Tr[ns(na)] (up, down, total) =   2.54623  2.19437  4.74060
   spin  1
    eigenvalues: 
  0.159  0.183  0.431  0.856  0.917
    eigenvectors:
  0.000  0.000  0.567  0.433  0.000
  0.000  0.661  0.155  0.184  0.000
  0.621  0.000  0.000  0.000  0.379
  0.000  0.339  0.278  0.383  0.000
  0.379  0.000  0.000  0.000  0.621
    occupations:
  0.615  0.117  0.000 -0.176  0.000
  0.117  0.346 -0.000 -0.230  0.000
  0.000 -0.000  0.446 -0.000  0.368
 -0.176 -0.230 -0.000  0.510 -0.000
  0.000  0.000  0.368 -0.000  0.630
   spin  2
    eigenvalues: 
  0.158  0.185  0.407  0.672  0.773
    eigenvectors:
  0.000  0.001  0.716  0.283  0.000
  0.000  0.662  0.107  0.231  0.000
  0.582  0.000  0.000  0.000  0.418
  0.000  0.337  0.177  0.486  0.000
  0.418  0.000  0.000  0.000  0.582
    occupations:
  0.482  0.063  0.000 -0.101  0.000
  0.063  0.321 -0.000 -0.194  0.000
  0.000 -0.000  0.415 -0.000  0.303
 -0.101 -0.194 -0.000  0.461 -0.000
  0.000  0.000  0.303 -0.000  0.516
atomic mag. moment =     0.351865
atom    4   Tr[ns(na)] (up, down, total) =   2.56558  2.38616  4.95173
   spin  1
    eigenvalues: 
  0.162  0.183  0.411  0.869  0.940
    eigenvectors:
  0.000  0.000  0.127  0.873  0.000
  0.524  0.000  0.416  0.060  0.000
  0.000  0.711  0.000  0.000  0.289
  0.476  0.000  0.457  0.067  0.000
  0.000  0.289  0.000  0.000  0.711
    occupations:
  0.811  0.105  0.000 -0.111  0.000
  0.105  0.308 -0.000 -0.154  0.000
  0.000 -0.000  0.402 -0.000  0.343
 -0.111 -0.154 -0.000  0.323 -0.000
  0.000  0.000  0.343 -0.000  0.721
   spin  2
    eigenvalues: 
  0.163  0.183  0.395  0.757  0.888
    eigenvectors:
  0.000  0.000  0.093  0.906  0.000
  0.513  0.000  0.438  0.048  0.000
  0.000  0.737  0.000  0.000  0.263
  0.486  0.000  0.468  0.045  0.000
  0.000  0.263  0.000  0.000  0.737
    occupations:
  0.723  0.077  0.000 -0.072  0.000
  0.077  0.294 -0.000 -0.133  0.000
  0.000 -0.000  0.368 -0.000  0.310
 -0.072 -0.133 -0.000  0.299 -0.000
  0.000  0.000  0.310 -0.000  0.703
atomic mag. moment =     0.179421
N of occupied +U levels =   26.685595
 --- exit write_ns ---

     negative rho (up, down):  0.000E+00 1.162E-03
 --- in v_hubbard ---
Hubbard energy    1.0277
 -------

     total cpu time spent up to now is       23.1 secs

     total energy              =   -1456.44747359 Ry
     Harris-Foulkes estimate   =   -1459.70124947 Ry
     estimated scf accuracy    <      25.24135717 Ry

     total magnetization       =     0.75 Bohr mag/cell
     absolute magnetization    =     0.86 Bohr mag/cell

     iteration #  3     ecut=    25.00 Ry     beta=0.40
     Davidson diagonalization with overlap
     ethr =  2.39E-03,  avg # of iterations =  2.0
 --- enter write_ns ---
 LDA+U parameters:
U( 1)     =  5.87390000
alpha( 1) =  0.00000000
U( 2)     =  5.72630000
alpha( 2) =  0.00000000
U( 3)     =  5.89570000
alpha( 3) =  0.00000000
U( 4)     =  5.85880000
alpha( 4) =  0.00000000
atom    1   Tr[ns(na)] (up, down, total) =   4.96747  0.75538  5.72285
   spin  1
    eigenvalues: 
  0.989  0.992  0.995  0.996  0.996
    eigenvectors:
  0.007  0.000  0.669  0.000  0.324
  0.693  0.000  0.065  0.000  0.242
  0.000  0.580  0.000  0.420  0.000
  0.300  0.000  0.266  0.000  0.434
  0.000  0.420  0.000  0.580  0.000
    occupations:
  0.995 -0.001 -0.000 -0.000  0.000
 -0.001  0.991 -0.000 -0.003  0.000
 -0.000 -0.000  0.994  0.000  0.002
 -0.000 -0.003  0.000  0.993 -0.000
  0.000  0.000  0.002 -0.000  0.994
   spin  2
    eigenvalues: 
  0.074  0.095  0.097  0.215  0.275
    eigenvectors:
  0.311  0.685  0.000  0.000  0.004
  0.260  0.081  0.000  0.000  0.659
  0.000  0.000  0.354  0.646  0.000
  0.429  0.234  0.000  0.000  0.337
  0.000  0.000  0.646  0.354  0.000
    occupations:
  0.089  0.015 -0.000 -0.001  0.000
  0.015  0.208 -0.000  0.092  0.000
 -0.000 -0.000  0.173  0.000 -0.057
 -0.001  0.092  0.000  0.147 -0.000
  0.000  0.000 -0.057 -0.000  0.138
atomic mag. moment =     4.212084
atom    2   Tr[ns(na)] (up, down, total) =   3.59390  3.45805  7.05195
   spin  1
    eigenvalues: 
  0.285  0.333  0.992  0.992  0.992
    eigenvectors:
  0.000  0.000  0.890  0.000  0.109
  0.615  0.000  0.047  0.000  0.339
  0.000  0.694  0.000  0.306  0.000
  0.385  0.000  0.063  0.000  0.552
  0.000  0.306  0.000  0.694  0.000
    occupations:
  0.992  0.008  0.000  0.006  0.000
  0.008  0.558 -0.000 -0.344  0.000
  0.000 -0.000  0.535  0.000  0.304
  0.006 -0.344  0.000  0.720 -0.000
  0.000  0.000  0.304 -0.000  0.790
   spin  2
    eigenvalues: 
  0.220  0.270  0.987  0.991  0.991
    eigenvectors:
  0.000  0.000  0.254  0.000  0.745
  0.648  0.000  0.254  0.000  0.098
  0.000  0.685  0.000  0.315  0.000
  0.352  0.000  0.492  0.000  0.156
  0.000  0.315  0.000  0.685  0.000
    occupations:
  0.990  0.014  0.000  0.008  0.000
  0.014  0.490 -0.000 -0.367  0.000
  0.000 -0.000  0.497  0.000  0.335
  0.008 -0.367  0.000  0.718 -0.000
  0.000  0.000  0.335 -0.000  0.764
atomic mag. moment =     0.135856
atom    3   Tr[ns(na)] (up, down, total) =   3.86301  3.83758  7.70058
   spin  1
    eigenvalues: 
  0.328  0.557  0.992  0.992  0.993
    eigenvectors:
  0.000  0.000  0.148  0.851  0.000
  0.659  0.000  0.297  0.045  0.000
  0.000  0.600  0.000  0.000  0.400
  0.341  0.000  0.555  0.104  0.000
  0.000  0.400  0.000  0.000  0.600
    occupations:
  0.992 -0.010 -0.000 -0.007  0.000
 -0.010  0.555 -0.000 -0.315  0.000
 -0.000 -0.000  0.731  0.000  0.214
 -0.007 -0.315  0.000  0.766 -0.000
  0.000  0.000  0.214 -0.000  0.819
   spin  2
    eigenvalues: 
  0.344  0.524  0.988  0.989  0.992
    eigenvectors:
  0.001  0.000  0.853  0.000  0.147
  0.661  0.000  0.040  0.000  0.298
  0.000  0.558  0.000  0.442  0.000
  0.338  0.000  0.107  0.000  0.555
  0.000  0.442  0.000  0.558  0.000
    occupations:
  0.988 -0.016 -0.000 -0.010  0.000
 -0.016  0.563 -0.000 -0.306  0.000
 -0.000 -0.000  0.730  0.000  0.231
 -0.010 -0.306  0.000  0.772 -0.000
  0.000  0.000  0.231 -0.000  0.784
atomic mag. moment =     0.025430
atom    4   Tr[ns(na)] (up, down, total) =   3.66249  3.65658  7.31907
   spin  1
    eigenvalues: 
  0.339  0.346  0.992  0.993  0.993
    eigenvectors:
  0.000  0.000  0.470  0.530  0.000
  0.562  0.000  0.231  0.206  0.000
  0.000  0.723  0.000  0.000  0.277
  0.438  0.000  0.299  0.264  0.000
  0.000  0.277  0.000  0.000  0.723
    occupations:
  0.992  0.001  0.000  0.000  0.000
  0.001  0.625 -0.000 -0.324  0.000
  0.000 -0.000  0.525  0.000  0.289
  0.000 -0.324  0.000  0.706 -0.000
  0.000  0.000  0.289 -0.000  0.814
   spin  2
    eigenvalues: 
  0.332  0.357  0.988  0.989  0.990
    eigenvectors:
  0.000  0.000  0.556  0.000  0.444
  0.000  0.556  0.202  0.000  0.241
  0.755  0.000  0.000  0.245  0.000
  0.000  0.444  0.242  0.000  0.314
  0.245  0.000  0.000  0.755  0.000
    occupations:
  0.989  0.004  0.000  0.005  0.000
  0.004  0.638 -0.000 -0.314  0.000
  0.000 -0.000  0.493  0.000  0.282
  0.005 -0.314  0.000  0.709 -0.000
  0.000  0.000  0.282 -0.000  0.828
atomic mag. moment =     0.005908
N of occupied +U levels =   27.794446
 --- exit write_ns ---

     negative rho (up, down):  0.000E+00 8.981E-04
 --- in v_hubbard ---
Hubbard energy    0.9896
 -------

     total cpu time spent up to now is       29.7 secs

     total energy              =   -1457.61125695 Ry
     Harris-Foulkes estimate   =   -1457.72267024 Ry
     estimated scf accuracy    <       0.96655217 Ry

     total magnetization       =     4.98 Bohr mag/cell
     absolute magnetization    =     5.02 Bohr mag/cell

     iteration #  4     ecut=    25.00 Ry     beta=0.40
     Davidson diagonalization with overlap
     ethr =  1.10E-03,  avg # of iterations =  1.8
 --- enter write_ns ---
 LDA+U parameters:
U( 1)     =  5.87390000
alpha( 1) =  0.00000000
U( 2)     =  5.72630000
alpha( 2) =  0.00000000
U( 3)     =  5.89570000
alpha( 3) =  0.00000000
U( 4)     =  5.85880000
alpha( 4) =  0.00000000
atom    1   Tr[ns(na)] (up, down, total) =   4.96835  1.70049  6.66884
   spin  1
    eigenvalues: 
  0.990  0.993  0.995  0.995  0.995
    eigenvectors:
  0.006  0.000  0.586  0.408  0.000
  0.678  0.000  0.098  0.224  0.000
  0.000  0.573  0.000  0.000  0.427
  0.316  0.000  0.316  0.368  0.000
  0.000  0.427  0.000  0.000  0.573
    occupations:
  0.995 -0.000 -0.000 -0.000  0.000
 -0.000  0.992 -0.000 -0.002  0.000
 -0.000 -0.000  0.994  0.000  0.001
 -0.000 -0.002  0.000  0.994 -0.000
  0.000  0.000  0.001 -0.000  0.994
   spin  2
    eigenvalues: 
  0.244  0.298  0.357  0.393  0.409
    eigenvectors:
  0.476  0.000  0.163  0.000  0.361
  0.041  0.000  0.476  0.000  0.483
  0.000  0.375  0.000  0.625  0.000
  0.483  0.000  0.361  0.000  0.156
  0.000  0.625  0.000  0.375  0.000
    occupations:
  0.322 -0.037 -0.000  0.067  0.000
 -0.037  0.377 -0.000  0.002  0.000
 -0.000 -0.000  0.357  0.000 -0.046
  0.067  0.002  0.000  0.310 -0.000
  0.000  0.000 -0.046 -0.000  0.333
atomic mag. moment =     3.267861
atom    2   Tr[ns(na)] (up, down, total) =   3.52634  3.44522  6.97156
   spin  1
    eigenvalues: 
  0.254  0.296  0.992  0.992  0.993
    eigenvectors:
  0.000  0.000  0.745  0.255  0.000
  0.615  0.000  0.103  0.282  0.000
  0.000  0.695  0.000  0.000  0.305
  0.385  0.000  0.152  0.463  0.000
  0.000  0.305  0.000  0.000  0.695
    occupations:
  0.992  0.007  0.000  0.005  0.000
  0.007  0.538 -0.000 -0.359  0.000
  0.000 -0.000  0.509  0.000  0.321
  0.005 -0.359  0.000  0.708 -0.000
  0.000  0.000  0.321 -0.000  0.780
   spin  2
    eigenvalues: 
  0.209  0.266  0.988  0.991  0.991
    eigenvectors:
  0.000  0.000  0.258  0.000  0.742
  0.648  0.000  0.254  0.000  0.098
  0.000  0.685  0.000  0.315  0.000
  0.351  0.000  0.488  0.000  0.161
  0.000  0.315  0.000  0.685  0.000
    occupations:
  0.990  0.011  0.000  0.006  0.000
  0.011  0.483 -0.000 -0.372  0.000
  0.000 -0.000  0.494  0.000  0.337
  0.006 -0.372  0.000  0.715 -0.000
  0.000  0.000  0.337 -0.000  0.763
atomic mag. moment =     0.081116
atom    3   Tr[ns(na)] (up, down, total) =   3.35795  3.30316  6.66111
   spin  1
    eigenvalues: 
  0.190  0.211  0.981  0.987  0.989
    eigenvectors:
  0.000  0.000  0.363  0.636  0.000
  0.000  0.658  0.226  0.116  0.000
  0.620  0.000  0.000  0.000  0.380
  0.000  0.342  0.410  0.248  0.000
  0.380  0.000  0.000  0.000  0.620
    occupations:
  0.985 -0.010  0.000 -0.011  0.000
 -0.010  0.476 -0.000 -0.366  0.000
  0.000 -0.000  0.494  0.000  0.388
 -0.011 -0.366  0.000  0.719 -0.000
  0.000  0.000  0.388 -0.000  0.685
   spin  2
    eigenvalues: 
  0.185  0.225  0.953  0.964  0.976
    eigenvectors:
  0.000  0.001  0.961  0.000  0.038
  0.000  0.661  0.008  0.000  0.332
  0.566  0.000  0.000  0.434  0.000
  0.000  0.338  0.031  0.000  0.630
  0.434  0.000  0.000  0.566  0.000
    occupations:
  0.953 -0.021  0.000 -0.010  0.000
 -0.021  0.480 -0.000 -0.355  0.000
  0.000 -0.000  0.524  0.000  0.386
 -0.010 -0.355  0.000  0.721 -0.000
  0.000  0.000  0.386 -0.000  0.626
atomic mag. moment =     0.054792
atom    4   Tr[ns(na)] (up, down, total) =   3.60463  3.66488  7.26950
   spin  1
    eigenvalues: 
  0.304  0.320  0.993  0.994  0.994
    eigenvectors:
  0.000  0.000  0.510  0.489  0.000
  0.571  0.000  0.206  0.222  0.000
  0.000  0.716  0.000  0.000  0.284
  0.429  0.000  0.283  0.288  0.000
  0.000  0.284  0.000  0.000  0.716
    occupations:
  0.993  0.004  0.000  0.003  0.000
  0.004  0.599 -0.000 -0.341  0.000
  0.000 -0.000  0.512  0.000  0.304
  0.003 -0.341  0.000  0.698 -0.000
  0.000  0.000  0.304 -0.000  0.803
   spin  2
    eigenvalues: 
  0.343  0.349  0.990  0.991  0.992
    eigenvectors:
  0.000  0.000  0.650  0.000  0.350
  0.566  0.000  0.160  0.000  0.273
  0.000  0.742  0.000  0.258  0.000
  0.433  0.000  0.190  0.000  0.377
  0.000  0.258  0.000  0.742  0.000
    occupations:
  0.990  0.008  0.000  0.008  0.000
  0.008  0.624 -0.000 -0.321  0.000
  0.000 -0.000  0.515  0.000  0.281
  0.008 -0.321  0.000  0.710 -0.000
  0.000  0.000  0.281 -0.000  0.825
atomic mag. moment =    -0.060250
N of occupied +U levels =   27.571023
 --- exit write_ns ---

     negative rho (up, down):  0.000E+00 9.241E-04
 --- in v_hubbard ---
Hubbard energy    0.9543
 -------

     total cpu time spent up to now is       35.5 secs

     total energy              =   -1457.68238512 Ry
     Harris-Foulkes estimate   =   -1457.71692440 Ry
     estimated scf accuracy    <       0.52539143 Ry

     total magnetization       =     4.02 Bohr mag/cell
     absolute magnetization    =     4.18 Bohr mag/cell

     iteration #  5     ecut=    25.00 Ry     beta=0.40
     Davidson diagonalization with overlap
     ethr =  5.97E-04,  avg # of iterations =  1.2
 --- enter write_ns ---
 LDA+U parameters:
U( 1)     =  5.87390000
alpha( 1) =  0.00000000
U( 2)     =  5.72630000
alpha( 2) =  0.00000000
U( 3)     =  5.89570000
alpha( 3) =  0.00000000
U( 4)     =  5.85880000
alpha( 4) =  0.00000000
atom    1   Tr[ns(na)] (up, down, total) =   4.96807  1.79186  6.75993
   spin  1
    eigenvalues: 
  0.990  0.993  0.995  0.995  0.995
    eigenvectors:
  0.007  0.000  0.648  0.346  0.000
  0.682  0.000  0.076  0.242  0.000
  0.000  0.592  0.000  0.000  0.408
  0.311  0.000  0.277  0.412  0.000
  0.000  0.408  0.000  0.000  0.592
    occupations:
  0.995 -0.000 -0.000 -0.000  0.000
 -0.000  0.992 -0.000 -0.002  0.000
 -0.000 -0.000  0.994  0.000  0.001
 -0.000 -0.002  0.000  0.994 -0.000
  0.000  0.000  0.001 -0.000  0.994
   spin  2
    eigenvalues: 
  0.172  0.242  0.356  0.398  0.624
    eigenvectors:
  0.580  0.000  0.022  0.000  0.398
  0.078  0.000  0.646  0.000  0.276
  0.000  0.417  0.000  0.583  0.000
  0.341  0.000  0.333  0.000  0.326
  0.000  0.583  0.000  0.417  0.000
    occupations:
  0.356 -0.128 -0.000  0.178  0.000
 -0.128  0.415 -0.000 -0.051  0.000
 -0.000 -0.000  0.333  0.000 -0.077
  0.178 -0.051  0.000  0.380 -0.000
  0.000  0.000 -0.077 -0.000  0.307
atomic mag. moment =     3.176201
atom    2   Tr[ns(na)] (up, down, total) =   3.52449  3.43889  6.96338
   spin  1
    eigenvalues: 
  0.253  0.292  0.992  0.993  0.993
    eigenvectors:
  0.000  0.000  0.418  0.582  0.000
  0.613  0.000  0.219  0.168  0.000
  0.000  0.695  0.000  0.000  0.305
  0.387  0.000  0.363  0.250  0.000
  0.000  0.305  0.000  0.000  0.695
    occupations:
  0.993  0.008  0.000  0.006  0.000
  0.008  0.539 -0.000 -0.360  0.000
  0.000 -0.000  0.506  0.000  0.323
  0.006 -0.360  0.000  0.707 -0.000
  0.000  0.000  0.323 -0.000  0.780
   spin  2
    eigenvalues: 
  0.200  0.265  0.990  0.992  0.992
    eigenvectors:
  0.000  0.000  0.162  0.838  0.000
  0.648  0.000  0.288  0.063  0.000
  0.000  0.685  0.000  0.000  0.315
  0.351  0.000  0.550  0.099  0.000
  0.000  0.315  0.000  0.000  0.685
    occupations:
  0.991  0.012  0.000  0.008  0.000
  0.012  0.478 -0.000 -0.377  0.000
  0.000 -0.000  0.494  0.000  0.338
  0.008 -0.377  0.000  0.713 -0.000
  0.000  0.000  0.338 -0.000  0.763
atomic mag. moment =     0.085605
atom    3   Tr[ns(na)] (up, down, total) =   3.43262  3.40996  6.84258
   spin  1
    eigenvalues: 
  0.217  0.241  0.991  0.991  0.992
    eigenvectors:
  0.000  0.000  0.689  0.310  0.000
  0.000  0.668  0.094  0.238  0.000
  0.626  0.000  0.000  0.000  0.374
  0.000  0.331  0.217  0.452  0.000
  0.374  0.000  0.000  0.000  0.626
    occupations:
  0.991 -0.013  0.000 -0.009  0.000
 -0.013  0.490 -0.000 -0.353  0.000
  0.000 -0.000  0.507  0.000  0.375
 -0.009 -0.353  0.000  0.743 -0.000
  0.000  0.000  0.375 -0.000  0.702
   spin  2
    eigenvalues: 
  0.211  0.247  0.980  0.982  0.990
    eigenvectors:
  0.000  0.001  0.839  0.000  0.160
  0.000  0.671  0.042  0.000  0.287
  0.574  0.000  0.000  0.426  0.000
  0.000  0.328  0.119  0.000  0.553
  0.426  0.000  0.000  0.574  0.000
    occupations:
  0.980 -0.022  0.000 -0.011  0.000
 -0.022  0.491 -0.000 -0.348  0.000
  0.000 -0.000  0.540  0.000  0.381
 -0.011 -0.348  0.000  0.745 -0.000
  0.000  0.000  0.381 -0.000  0.654
atomic mag. moment =     0.022661
atom    4   Tr[ns(na)] (up, down, total) =   3.43799  3.42711  6.86510
   spin  1
    eigenvalues: 
  0.218  0.244  0.992  0.992  0.993
    eigenvectors:
  0.000  0.000  0.989  0.011  0.000
  0.579  0.000  0.006  0.415  0.000
  0.000  0.711  0.000  0.000  0.289
  0.421  0.000  0.005  0.574  0.000
  0.000  0.289  0.000  0.000  0.711
    occupations:
  0.992  0.009  0.000  0.008  0.000
  0.009  0.544 -0.000 -0.382  0.000
  0.000 -0.000  0.460  0.000  0.339
  0.008 -0.382  0.000  0.666 -0.000
  0.000  0.000  0.339 -0.000  0.776
   spin  2
    eigenvalues: 
  0.228  0.244  0.982  0.984  0.989
    eigenvectors:
  0.001  0.000  0.588  0.000  0.412
  0.573  0.000  0.188  0.000  0.239
  0.000  0.746  0.000  0.254  0.000
  0.426  0.000  0.224  0.000  0.350
  0.000  0.254  0.000  0.746  0.000
    occupations:
  0.984  0.012  0.000  0.016  0.000
  0.012  0.552 -0.000 -0.375  0.000
  0.000 -0.000  0.432  0.000  0.322
  0.016 -0.375  0.000  0.663 -0.000
  0.000  0.000  0.322 -0.000  0.797
atomic mag. moment =     0.010882
N of occupied +U levels =   27.430988
 --- exit write_ns ---

     negative rho (up, down):  0.000E+00 1.011E-03
 --- in v_hubbard ---
Hubbard energy    0.8982
 -------

     total cpu time spent up to now is       40.9 secs

     total energy              =   -1457.73568445 Ry
     Harris-Foulkes estimate   =   -1457.71329354 Ry
     estimated scf accuracy    <       0.35358626 Ry

     total magnetization       =     4.00 Bohr mag/cell
     absolute magnetization    =     4.08 Bohr mag/cell

     iteration #  6     ecut=    25.00 Ry     beta=0.40
     Davidson diagonalization with overlap
     ethr =  4.02E-04,  avg # of iterations =  1.0
 --- enter write_ns ---
 LDA+U parameters:
U( 1)     =  5.87390000
alpha( 1) =  0.00000000
U( 2)     =  5.72630000
alpha( 2) =  0.00000000
U( 3)     =  5.89570000
alpha( 3) =  0.00000000
U( 4)     =  5.85880000
alpha( 4) =  0.00000000
atom    1   Tr[ns(na)] (up, down, total) =   4.96769  1.81009  6.77778
   spin  1
    eigenvalues: 
  0.990  0.993  0.995  0.995  0.995
    eigenvectors:
  0.007  0.000  0.628  0.000  0.366
  0.684  0.000  0.081  0.000  0.235
  0.000  0.587  0.000  0.413  0.000
  0.310  0.000  0.291  0.000  0.400
  0.000  0.413  0.000  0.587  0.000
    occupations:
  0.995 -0.000 -0.000 -0.000  0.000
 -0.000  0.992 -0.000 -0.002  0.000
 -0.000 -0.000  0.994  0.000  0.001
 -0.000 -0.002  0.000  0.993 -0.000
  0.000  0.000  0.001 -0.000  0.994
   spin  2
    eigenvalues: 
  0.112  0.121  0.308  0.340  0.928
    eigenvectors:
  0.583  0.000  0.000  0.007  0.410
  0.101  0.000  0.000  0.663  0.236
  0.000  0.377  0.623  0.000  0.000
  0.316  0.000  0.000  0.330  0.354
  0.000  0.623  0.377  0.000  0.000
    occupations:
  0.449 -0.238 -0.000  0.322  0.000
 -0.238  0.456 -0.000 -0.129  0.000
 -0.000 -0.000  0.238  0.000 -0.090
  0.322 -0.129  0.000  0.476 -0.000
  0.000  0.000 -0.090 -0.000  0.192
atomic mag. moment =     3.157607
atom    2   Tr[ns(na)] (up, down, total) =   3.54229  3.42844  6.97073
   spin  1
    eigenvalues: 
  0.260  0.303  0.993  0.993  0.994
    eigenvectors:
  0.000  0.000  0.409  0.591  0.000
  0.612  0.000  0.223  0.165  0.000
  0.000  0.696  0.000  0.000  0.304
  0.388  0.000  0.369  0.243  0.000
  0.000  0.304  0.000  0.000  0.696
    occupations:
  0.993  0.008  0.000  0.006  0.000
  0.008  0.544 -0.000 -0.357  0.000
  0.000 -0.000  0.513  0.000  0.318
  0.006 -0.357  0.000  0.709 -0.000
  0.000  0.000  0.318 -0.000  0.784
   spin  2
    eigenvalues: 
  0.194  0.257  0.992  0.992  0.992
    eigenvectors:
  0.000  0.000  0.009  0.000  0.991
  0.649  0.000  0.349  0.000  0.002
  0.000  0.685  0.000  0.315  0.000
  0.350  0.000  0.642  0.000  0.007
  0.000  0.315  0.000  0.685  0.000
    occupations:
  0.992  0.012  0.000  0.009  0.000
  0.012  0.474 -0.000 -0.381  0.000
  0.000 -0.000  0.489  0.000  0.342
  0.009 -0.381  0.000  0.713 -0.000
  0.000  0.000  0.342 -0.000  0.761
atomic mag. moment =     0.113855
atom    3   Tr[ns(na)] (up, down, total) =   3.41949  3.39942  6.81891
   spin  1
    eigenvalues: 
  0.205  0.239  0.991  0.992  0.992
    eigenvectors:
  0.000  0.001  0.719  0.280  0.000
  0.000  0.673  0.082  0.245  0.000
  0.635  0.000  0.000  0.000  0.365
  0.000  0.326  0.199  0.475  0.000
  0.365  0.000  0.000  0.000  0.635
    occupations:
  0.991 -0.015  0.000 -0.010  0.000
 -0.015  0.485 -0.000 -0.353  0.000
  0.000 -0.000  0.492  0.000  0.379
 -0.010 -0.353  0.000  0.746 -0.000
  0.000  0.000  0.379 -0.000  0.705
   spin  2
    eigenvalues: 
  0.198  0.243  0.982  0.984  0.991
    eigenvectors:
  0.000  0.001  0.812  0.000  0.187
  0.000  0.676  0.048  0.000  0.276
  0.577  0.000  0.000  0.423  0.000
  0.000  0.323  0.139  0.000  0.538
  0.423  0.000  0.000  0.577  0.000
    occupations:
  0.983 -0.023  0.000 -0.012  0.000
 -0.023  0.485 -0.000 -0.349  0.000
  0.000 -0.000  0.530  0.000  0.388
 -0.012 -0.349  0.000  0.748 -0.000
  0.000  0.000  0.388 -0.000  0.652
atomic mag. moment =     0.020070
atom    4   Tr[ns(na)] (up, down, total) =   3.45606  3.44769  6.90376
   spin  1
    eigenvalues: 
  0.225  0.252  0.992  0.993  0.993
    eigenvectors:
  0.000  0.000  0.999  0.001  0.000
  0.586  0.000  0.001  0.413  0.000
  0.000  0.706  0.000  0.000  0.294
  0.414  0.000  0.000  0.586  0.000
  0.000  0.294  0.000  0.000  0.706
    occupations:
  0.992  0.012  0.000  0.010  0.000
  0.012  0.543 -0.000 -0.378  0.000
  0.000 -0.000  0.470  0.000  0.338
  0.010 -0.378  0.000  0.675 -0.000
  0.000  0.000  0.338 -0.000  0.775
   spin  2
    eigenvalues: 
  0.234  0.250  0.986  0.987  0.991
    eigenvectors:
  0.001  0.000  0.605  0.000  0.394
  0.580  0.000  0.182  0.000  0.239
  0.000  0.745  0.000  0.255  0.000
  0.419  0.000  0.214  0.000  0.367
  0.000  0.255  0.000  0.745  0.000
    occupations:
  0.987  0.017  0.000  0.018  0.000
  0.017  0.551 -0.000 -0.372  0.000
  0.000 -0.000  0.438  0.000  0.322
  0.018 -0.372  0.000  0.672 -0.000
  0.000  0.000  0.322 -0.000  0.799
atomic mag. moment =     0.008369
N of occupied +U levels =   27.471175
 --- exit write_ns ---

     negative rho (up, down):  0.000E+00 9.313E-04
 --- in v_hubbard ---
Hubbard energy    0.8888
 -------

     total cpu time spent up to now is       46.1 secs

     total energy              =   -1457.77119011 Ry
     Harris-Foulkes estimate   =   -1457.74573113 Ry
     estimated scf accuracy    <       0.33509025 Ry

     total magnetization       =     4.00 Bohr mag/cell
     absolute magnetization    =     4.12 Bohr mag/cell

     iteration #  7     ecut=    25.00 Ry     beta=0.40
     Davidson diagonalization with overlap
     ethr =  3.81E-04,  avg # of iterations =  1.0
 --- enter write_ns ---
 LDA+U parameters:
U( 1)     =  5.87390000
alpha( 1) =  0.00000000
U( 2)     =  5.72630000
alpha( 2) =  0.00000000
U( 3)     =  5.89570000
alpha( 3) =  0.00000000
U( 4)     =  5.85880000
alpha( 4) =  0.00000000
atom    1   Tr[ns(na)] (up, down, total) =   4.96812  1.74500  6.71312
   spin  1
    eigenvalues: 
  0.990  0.993  0.995  0.995  0.995
    eigenvectors:
  0.007  0.000  0.623  0.000  0.370
  0.685  0.000  0.082  0.000  0.232
  0.000  0.586  0.000  0.414  0.000
  0.308  0.000  0.294  0.000  0.397
  0.000  0.414  0.000  0.586  0.000
    occupations:
  0.995 -0.000 -0.000 -0.000  0.000
 -0.000  0.992 -0.000 -0.002  0.000
 -0.000 -0.000  0.994  0.000  0.001
 -0.000 -0.002  0.000  0.994 -0.000
  0.000  0.000  0.001 -0.000  0.994
   spin  2
    eigenvalues: 
  0.099  0.103  0.232  0.322  0.989
    eigenvectors:
  0.584  0.000  0.000  0.003  0.413
  0.109  0.000  0.000  0.676  0.215
  0.000  0.364  0.636  0.000  0.000
  0.306  0.000  0.000  0.321  0.373
  0.000  0.636  0.364  0.000  0.000
    occupations:
  0.467 -0.255  0.000  0.356  0.000
 -0.255  0.441 -0.000 -0.148  0.000
  0.000 -0.000  0.185  0.000 -0.063
  0.356 -0.148  0.000  0.502 -0.000
  0.000  0.000 -0.063 -0.000  0.150
atomic mag. moment =     3.223116
atom    2   Tr[ns(na)] (up, down, total) =   3.53217  3.40397  6.93614
   spin  1
    eigenvalues: 
  0.255  0.298  0.993  0.993  0.994
    eigenvectors:
  0.000  0.000  0.438  0.562  0.000
  0.611  0.000  0.211  0.177  0.000
  0.000  0.696  0.000  0.000  0.304
  0.388  0.000  0.351  0.261  0.000
  0.000  0.304  0.000  0.000  0.696
    occupations:
  0.993  0.009  0.000  0.007  0.000
  0.009  0.542 -0.000 -0.360  0.000
  0.000 -0.000  0.509  0.000  0.320
  0.007 -0.360  0.000  0.706 -0.000
  0.000  0.000  0.320 -0.000  0.782
   spin  2
    eigenvalues: 
  0.190  0.236  0.992  0.993  0.993
    eigenvectors:
  0.000  0.000  0.254  0.000  0.745
  0.649  0.000  0.269  0.000  0.082
  0.000  0.685  0.000  0.315  0.000
  0.350  0.000  0.477  0.000  0.173
  0.000  0.315  0.000  0.685  0.000
    occupations:
  0.992  0.012  0.000  0.009  0.000
  0.012  0.471 -0.000 -0.383  0.000
  0.000 -0.000  0.475  0.000  0.351
  0.009 -0.383  0.000  0.711 -0.000
  0.000  0.000  0.351 -0.000  0.754
atomic mag. moment =     0.128193
atom    3   Tr[ns(na)] (up, down, total) =   3.41521  3.40006  6.81528
   spin  1
    eigenvalues: 
  0.202  0.238  0.992  0.992  0.992
    eigenvectors:
  0.000  0.001  0.703  0.297  0.000
  0.000  0.674  0.087  0.239  0.000
  0.638  0.000  0.000  0.000  0.362
  0.000  0.325  0.211  0.464  0.000
  0.362  0.000  0.000  0.000  0.638
    occupations:
  0.991 -0.015  0.000 -0.010  0.000
 -0.015  0.484 -0.000 -0.353  0.000
  0.000 -0.000  0.488  0.000  0.380
 -0.010 -0.353  0.000  0.746 -0.000
  0.000  0.000  0.380 -0.000  0.706
   spin  2
    eigenvalues: 
  0.194  0.242  0.985  0.986  0.992
    eigenvectors:
  0.000  0.001  0.784  0.000  0.215
  0.000  0.677  0.056  0.000  0.267
  0.578  0.000  0.000  0.422  0.000
  0.000  0.322  0.160  0.000  0.518
  0.422  0.000  0.000  0.578  0.000
    occupations:
  0.986 -0.023  0.000 -0.013  0.000
 -0.023  0.484 -0.000 -0.349  0.000
  0.000 -0.000  0.529  0.000  0.391
 -0.013 -0.349  0.000  0.749 -0.000
  0.000  0.000  0.391 -0.000  0.652
atomic mag. moment =     0.015152
atom    4   Tr[ns(na)] (up, down, total) =   3.44936  3.44136  6.89072
   spin  1
    eigenvalues: 
  0.222  0.249  0.992  0.993  0.993
    eigenvectors:
  0.000  0.000  0.997  0.003  0.000
  0.587  0.000  0.000  0.412  0.000
  0.000  0.704  0.000  0.000  0.296
  0.412  0.000  0.003  0.585  0.000
  0.000  0.296  0.000  0.000  0.704
    occupations:
  0.992  0.013  0.000  0.011  0.000
  0.013  0.540 -0.000 -0.379  0.000
  0.000 -0.000  0.469  0.000  0.340
  0.011 -0.379  0.000  0.675 -0.000
  0.000  0.000  0.340 -0.000  0.773
   spin  2
    eigenvalues: 
  0.229  0.245  0.987  0.988  0.992
    eigenvectors:
  0.001  0.000  0.657  0.000  0.342
  0.581  0.000  0.159  0.000  0.260
  0.000  0.744  0.000  0.256  0.000
  0.418  0.000  0.184  0.000  0.398
  0.000  0.256  0.000  0.744  0.000
    occupations:
  0.988  0.018  0.000  0.018  0.000
  0.018  0.548 -0.000 -0.375  0.000
  0.000 -0.000  0.435  0.000  0.324
  0.018 -0.375  0.000  0.672 -0.000
  0.000  0.000  0.324 -0.000  0.798
atomic mag. moment =     0.008000
N of occupied +U levels =   27.355254
 --- exit write_ns ---

     negative rho (up, down):  0.000E+00 9.699E-04
 --- in v_hubbard ---
Hubbard energy    0.7889
 -------

     total cpu time spent up to now is       51.7 secs

     total energy              =   -1457.83491254 Ry
     Harris-Foulkes estimate   =   -1457.77596353 Ry
     estimated scf accuracy    <       0.29134100 Ry

     total magnetization       =     4.00 Bohr mag/cell
     absolute magnetization    =     4.14 Bohr mag/cell

     iteration #  8     ecut=    25.00 Ry     beta=0.40
     Davidson diagonalization with overlap
     ethr =  3.31E-04,  avg # of iterations =  1.0
 --- enter write_ns ---
 LDA+U parameters:
U( 1)     =  5.87390000
alpha( 1) =  0.00000000
U( 2)     =  5.72630000
alpha( 2) =  0.00000000
U( 3)     =  5.89570000
alpha( 3) =  0.00000000
U( 4)     =  5.85880000
alpha( 4) =  0.00000000
atom    1   Tr[ns(na)] (up, down, total) =   4.96633  1.66590  6.63224
   spin  1
    eigenvalues: 
  0.989  0.992  0.995  0.995  0.996
    eigenvectors:
  0.006  0.000  0.607  0.000  0.386
  0.690  0.000  0.086  0.000  0.224
  0.000  0.598  0.000  0.402  0.000
  0.303  0.000  0.307  0.000  0.390
  0.000  0.402  0.000  0.598  0.000
    occupations:
  0.995 -0.001 -0.000  0.000  0.000
 -0.001  0.991 -0.000 -0.003  0.000
 -0.000 -0.000  0.993  0.000  0.002
  0.000 -0.003  0.000  0.993 -0.000
  0.000  0.000  0.002 -0.000  0.994
   spin  2
    eigenvalues: 
  0.082  0.087  0.178  0.325  0.995
    eigenvectors:
  0.000  0.587  0.000  0.000  0.412
  0.000  0.121  0.000  0.688  0.191
  0.366  0.000  0.634  0.000  0.000
  0.000  0.292  0.000  0.312  0.396
  0.634  0.000  0.366  0.000  0.000
    occupations:
  0.461 -0.252  0.000  0.370 -0.000
 -0.252  0.424 -0.000 -0.140  0.000
  0.000 -0.000  0.143  0.000 -0.046
  0.370 -0.140  0.000  0.521 -0.000
 -0.000  0.000 -0.046 -0.000  0.117
atomic mag. moment =     3.300429
atom    2   Tr[ns(na)] (up, down, total) =   3.59782  3.43616  7.03398
   spin  1
    eigenvalues: 
  0.281  0.336  0.993  0.994  0.994
    eigenvectors:
  0.000  0.000  0.452  0.548  0.000
  0.609  0.000  0.206  0.185  0.000
  0.000  0.698  0.000  0.000  0.302
  0.391  0.000  0.341  0.268  0.000
  0.000  0.302  0.000  0.000  0.698
    occupations:
  0.993  0.009  0.000  0.007  0.000
  0.009  0.560 -0.000 -0.347  0.000
  0.000 -0.000  0.534  0.000  0.302
  0.007 -0.347  0.000  0.715 -0.000
  0.000  0.000  0.302 -0.000  0.795
   spin  2
    eigenvalues: 
  0.202  0.253  0.993  0.993  0.995
    eigenvectors:
  0.000  0.000  0.548  0.000  0.452
  0.651  0.000  0.166  0.000  0.182
  0.000  0.685  0.000  0.315  0.000
  0.349  0.000  0.286  0.000  0.366
  0.000  0.315  0.000  0.685  0.000
    occupations:
  0.993  0.011  0.000  0.009  0.000
  0.011  0.479 -0.000 -0.377  0.000
  0.000 -0.000  0.486  0.000  0.344
  0.009 -0.377  0.000  0.718 -0.000
  0.000  0.000  0.344 -0.000  0.760
atomic mag. moment =     0.161667
atom    3   Tr[ns(na)] (up, down, total) =   3.41636  3.41538  6.83174
   spin  1
    eigenvalues: 
  0.202  0.243  0.988  0.991  0.992
    eigenvectors:
  0.000  0.001  0.859  0.000  0.141
  0.000  0.678  0.037  0.000  0.285
  0.651  0.000  0.000  0.349  0.000
  0.000  0.322  0.104  0.000  0.574
  0.349  0.000  0.000  0.651  0.000
    occupations:
  0.988 -0.017  0.000 -0.010  0.000
 -0.017  0.484 -0.000 -0.349  0.000
  0.000 -0.000  0.477  0.000  0.376
 -0.010 -0.349  0.000  0.751 -0.000
  0.000  0.000  0.376 -0.000  0.716
   spin  2
    eigenvalues: 
  0.194  0.248  0.988  0.992  0.993
    eigenvectors:
  0.000  0.001  0.692  0.000  0.307
  0.000  0.681  0.082  0.000  0.237
  0.580  0.000  0.000  0.420  0.000
  0.000  0.317  0.226  0.000  0.456
  0.420  0.000  0.000  0.580  0.000
    occupations:
  0.988 -0.025  0.000 -0.014  0.000
 -0.025  0.485 -0.000 -0.346  0.000
  0.000 -0.000  0.529  0.000  0.394
 -0.014 -0.346  0.000  0.755 -0.000
  0.000  0.000  0.394 -0.000  0.657
atomic mag. moment =     0.000983
atom    4   Tr[ns(na)] (up, down, total) =   3.47732  3.47274  6.95006
   spin  1
    eigenvalues: 
  0.235  0.264  0.991  0.993  0.994
    eigenvectors:
  0.001  0.000  0.273  0.726  0.000
  0.594  0.000  0.306  0.100  0.000
  0.000  0.697  0.000  0.000  0.303
  0.405  0.000  0.421  0.174  0.000
  0.000  0.303  0.000  0.000  0.697
    occupations:
  0.992  0.015  0.000  0.013  0.000
  0.015  0.542 -0.000 -0.371  0.000
  0.000 -0.000  0.485  0.000  0.335
  0.013 -0.371  0.000  0.685 -0.000
  0.000  0.000  0.335 -0.000  0.773
   spin  2
    eigenvalues: 
  0.241  0.257  0.990  0.991  0.993
    eigenvectors:
  0.001  0.000  0.656  0.000  0.343
  0.587  0.000  0.160  0.000  0.253
  0.000  0.743  0.000  0.257  0.000
  0.412  0.000  0.184  0.000  0.404
  0.000  0.257  0.000  0.743  0.000
    occupations:
  0.990  0.021  0.000  0.019  0.000
  0.021  0.551 -0.000 -0.369  0.000
  0.000 -0.000  0.446  0.000  0.321
  0.019 -0.369  0.000  0.683 -0.000
  0.000  0.000  0.321 -0.000  0.803
atomic mag. moment =     0.004579
N of occupied +U levels =   27.448023
 --- exit write_ns ---

     negative rho (up, down):  0.000E+00 1.109E-03
 --- in v_hubbard ---
Hubbard energy    0.4266
 -------

     total cpu time spent up to now is       57.1 secs

     total energy              =   -1457.79627011 Ry
     Harris-Foulkes estimate   =   -1457.84195419 Ry
     estimated scf accuracy    <       0.12845742 Ry

     total magnetization       =     3.96 Bohr mag/cell
     absolute magnetization    =     4.15 Bohr mag/cell

     iteration #  9     ecut=    25.00 Ry     beta=0.40
     Davidson diagonalization with overlap
     ethr =  1.46E-04,  avg # of iterations =  2.0
 --- enter write_ns ---
 LDA+U parameters:
U( 1)     =  5.87390000
alpha( 1) =  0.00000000
U( 2)     =  5.72630000
alpha( 2) =  0.00000000
U( 3)     =  5.89570000
alpha( 3) =  0.00000000
U( 4)     =  5.85880000
alpha( 4) =  0.00000000
atom    1   Tr[ns(na)] (up, down, total) =   4.96627  1.54402  6.51029
   spin  1
    eigenvalues: 
  0.990  0.991  0.995  0.995  0.996
    eigenvectors:
  0.007  0.000  0.631  0.000  0.362
  0.687  0.000  0.079  0.000  0.234
  0.000  0.604  0.000  0.396  0.000
  0.307  0.000  0.289  0.000  0.404
  0.000  0.396  0.000  0.604  0.000
    occupations:
  0.995 -0.001 -0.000  0.000  0.000
 -0.001  0.992 -0.000 -0.002  0.000
 -0.000 -0.000  0.992  0.000  0.002
  0.000 -0.002  0.000  0.994 -0.000
  0.000  0.000  0.002 -0.000  0.993
   spin  2
    eigenvalues: 
  0.057  0.064  0.123  0.306  0.994
    eigenvectors:
  0.000  0.589  0.000  0.000  0.411
  0.000  0.129  0.000  0.686  0.184
  0.381  0.000  0.619  0.000  0.000
  0.000  0.281  0.000  0.314  0.405
  0.619  0.000  0.381  0.000  0.000
    occupations:
  0.446 -0.256  0.000  0.379 -0.000
 -0.256  0.401 -0.000 -0.142  0.000
  0.000 -0.000  0.098  0.000 -0.032
  0.379 -0.142  0.000  0.517 -0.000
 -0.000  0.000 -0.032 -0.000  0.082
atomic mag. moment =     3.422245
atom    2   Tr[ns(na)] (up, down, total) =   3.53875  3.37231  6.91105
   spin  1
    eigenvalues: 
  0.244  0.307  0.994  0.994  1.000
    eigenvectors:
  0.000  0.000  0.000  0.705  0.295
  0.602  0.000  0.000  0.126  0.272
  0.000  0.701  0.299  0.000  0.000
  0.397  0.000  0.000  0.169  0.433
  0.000  0.299  0.701  0.000  0.000
    occupations:
  0.996  0.009  0.000  0.011  0.000
  0.009  0.544 -0.000 -0.369  0.000
  0.000 -0.000  0.512  0.000  0.314
  0.011 -0.369  0.000  0.698 -0.000
  0.000  0.000  0.314 -0.000  0.789
   spin  2
    eigenvalues: 
  0.173  0.218  0.993  0.994  0.995
    eigenvectors:
  0.000  0.000  0.703  0.000  0.297
  0.655  0.000  0.111  0.000  0.234
  0.000  0.684  0.000  0.316  0.000
  0.345  0.000  0.186  0.000  0.469
  0.000  0.316  0.000  0.684  0.000
    occupations:
  0.993  0.012  0.000  0.010  0.000
  0.012  0.456 -0.000 -0.390  0.000
  0.000 -0.000  0.463  0.000  0.361
  0.010 -0.390  0.000  0.711 -0.000
  0.000  0.000  0.361 -0.000  0.749
atomic mag. moment =     0.166440
atom    3   Tr[ns(na)] (up, down, total) =   3.43363  3.43823  6.87186
   spin  1
    eigenvalues: 
  0.194  0.263  0.990  0.992  0.994
    eigenvectors:
  0.000  0.001  0.804  0.000  0.195
  0.000  0.687  0.050  0.000  0.263
  0.679  0.000  0.000  0.321  0.000
  0.000  0.312  0.146  0.000  0.542
  0.321  0.000  0.000  0.679  0.000
    occupations:
  0.990 -0.020  0.000 -0.012  0.000
 -0.020  0.492 -0.000 -0.338  0.000
  0.000 -0.000  0.450  0.000  0.372
 -0.012 -0.338  0.000  0.765 -0.000
  0.000  0.000  0.372 -0.000  0.736
   spin  2
    eigenvalues: 
  0.191  0.268  0.993  0.993  0.994
    eigenvectors:
  0.000  0.002  0.743  0.000  0.255
  0.000  0.690  0.062  0.000  0.248
  0.583  0.000  0.000  0.417  0.000
  0.000  0.308  0.195  0.000  0.497
  0.417  0.000  0.000  0.583  0.000
    occupations:
  0.992 -0.027  0.000 -0.017  0.000
 -0.027  0.493 -0.000 -0.334  0.000
  0.000 -0.000  0.525  0.000  0.396
 -0.017 -0.334  0.000  0.770 -0.000
  0.000  0.000  0.396 -0.000  0.658
atomic mag. moment =    -0.004605
atom    4   Tr[ns(na)] (up, down, total) =   3.47809  3.46651  6.94459
   spin  1
    eigenvalues: 
  0.234  0.264  0.993  0.994  0.995
    eigenvectors:
  0.001  0.000  0.329  0.669  0.000
  0.608  0.000  0.279  0.113  0.000
  0.000  0.680  0.000  0.000  0.320
  0.391  0.000  0.392  0.217  0.000
  0.000  0.320  0.000  0.000  0.680
    occupations:
  0.992  0.021  0.000  0.017  0.000
  0.021  0.531 -0.000 -0.370  0.000
  0.000 -0.000  0.497  0.000  0.341
  0.017 -0.370  0.000  0.696 -0.000
  0.000  0.000  0.341 -0.000  0.761
   spin  2
    eigenvalues: 
  0.235  0.253  0.993  0.993  0.993
    eigenvectors:
  0.002  0.000  0.838  0.000  0.160
  0.598  0.000  0.083  0.000  0.319
  0.000  0.740  0.000  0.260  0.000
  0.399  0.000  0.079  0.000  0.521
  0.000  0.260  0.000  0.740  0.000
    occupations:
  0.991  0.029  0.000  0.024  0.000
  0.029  0.540 -0.000 -0.371  0.000
  0.000 -0.000  0.445  0.000  0.324
  0.024 -0.371  0.000  0.690 -0.000
  0.000  0.000  0.324 -0.000  0.801
atomic mag. moment =     0.011580
N of occupied +U levels =   27.237796
 --- exit write_ns ---

     negative rho (up, down):  0.000E+00 1.101E-03
 --- in v_hubbard ---
Hubbard energy    0.4391
 -------

     total cpu time spent up to now is       63.3 secs

     total energy              =   -1457.82366791 Ry
     Harris-Foulkes estimate   =   -1457.81053961 Ry
     estimated scf accuracy    <       0.07863372 Ry

     total magnetization       =     3.97 Bohr mag/cell
     absolute magnetization    =     4.23 Bohr mag/cell

     iteration # 10     ecut=    25.00 Ry     beta=0.40
     Davidson diagonalization with overlap
     ethr =  8.94E-05,  avg # of iterations =  1.2
 --- enter write_ns ---
 LDA+U parameters:
U( 1)     =  5.87390000
alpha( 1) =  0.00000000
U( 2)     =  5.72630000
alpha( 2) =  0.00000000
U( 3)     =  5.89570000
alpha( 3) =  0.00000000
U( 4)     =  5.85880000
alpha( 4) =  0.00000000
atom    1   Tr[ns(na)] (up, down, total) =   4.96696  1.52741  6.49437
   spin  1
    eigenvalues: 
  0.989  0.992  0.995  0.995  0.995
    eigenvectors:
  0.007  0.000  0.652  0.000  0.342
  0.693  0.000  0.072  0.000  0.236
  0.000  0.590  0.000  0.410  0.000
  0.301  0.000  0.277  0.000  0.423
  0.000  0.410  0.000  0.590  0.000
    occupations:
  0.995 -0.001 -0.000 -0.000  0.000
 -0.001  0.991 -0.000 -0.003  0.000
 -0.000 -0.000  0.993  0.000  0.002
 -0.000 -0.003  0.000  0.994 -0.000
  0.000  0.000  0.002 -0.000  0.994
   spin  2
    eigenvalues: 
  0.057  0.062  0.127  0.288  0.994
    eigenvectors:
  0.000  0.589  0.000  0.000  0.410
  0.000  0.125  0.000  0.686  0.189
  0.387  0.000  0.613  0.000  0.000
  0.000  0.286  0.000  0.314  0.400
  0.613  0.000  0.387  0.000  0.000
    occupations:
  0.445 -0.258  0.000  0.379 -0.000
 -0.258  0.393 -0.000 -0.152  0.000
  0.000 -0.000  0.100  0.000 -0.034
  0.379 -0.152  0.000  0.506 -0.000
 -0.000  0.000 -0.034 -0.000  0.084
atomic mag. moment =     3.439550
atom    2   Tr[ns(na)] (up, down, total) =   3.57572  3.40219  6.97792
   spin  1
    eigenvalues: 
  0.264  0.332  0.993  0.993  0.994
    eigenvectors:
  0.000  0.000  0.838  0.162  0.000
  0.600  0.000  0.058  0.342  0.000
  0.000  0.702  0.000  0.000  0.298
  0.399  0.000  0.105  0.496  0.000
  0.000  0.298  0.000  0.000  0.702
    occupations:
  0.993  0.011  0.000  0.009  0.000
  0.011  0.556 -0.000 -0.357  0.000
  0.000 -0.000  0.529  0.000  0.303
  0.009 -0.357  0.000  0.702 -0.000
  0.000  0.000  0.303 -0.000  0.796
   spin  2
    eigenvalues: 
  0.187  0.237  0.992  0.993  0.993
    eigenvectors:
  0.000  0.000  0.656  0.000  0.344
  0.656  0.000  0.127  0.000  0.216
  0.000  0.684  0.000  0.316  0.000
  0.343  0.000  0.217  0.000  0.440
  0.000  0.316  0.000  0.684  0.000
    occupations:
  0.992  0.013  0.000  0.010  0.000
  0.013  0.464 -0.000 -0.383  0.000
  0.000 -0.000  0.476  0.000  0.352
  0.010 -0.383  0.000  0.716 -0.000
  0.000  0.000  0.352 -0.000  0.754
atomic mag. moment =     0.173529
atom    3   Tr[ns(na)] (up, down, total) =   3.43049  3.43229  6.86278
   spin  1
    eigenvalues: 
  0.189  0.262  0.993  0.993  0.994
    eigenvectors:
  0.000  0.001  0.000  0.670  0.329
  0.000  0.689  0.000  0.088  0.223
  0.682  0.000  0.318  0.000  0.000
  0.000  0.310  0.000  0.242  0.448
  0.318  0.000  0.682  0.000  0.000
    occupations:
  0.992 -0.020  0.000 -0.013  0.000
 -0.020  0.489 -0.000 -0.338  0.000
  0.000 -0.000  0.445  0.000  0.374
 -0.013 -0.338  0.000  0.767 -0.000
  0.000  0.000  0.374 -0.000  0.737
   spin  2
    eigenvalues: 
  0.187  0.267  0.993  0.993  0.994
    eigenvectors:
  0.000  0.002  0.741  0.000  0.257
  0.000  0.692  0.062  0.000  0.246
  0.581  0.000  0.000  0.419  0.000
  0.000  0.306  0.197  0.000  0.497
  0.419  0.000  0.000  0.581  0.000
    occupations:
  0.991 -0.028  0.000 -0.018  0.000
 -0.028  0.490 -0.000 -0.334  0.000
  0.000 -0.000  0.524  0.000  0.398
 -0.018 -0.334  0.000  0.771 -0.000
  0.000  0.000  0.398 -0.000  0.655
atomic mag. moment =    -0.001796
atom    4   Tr[ns(na)] (up, down, total) =   3.46321  3.45202  6.91523
   spin  1
    eigenvalues: 
  0.225  0.256  0.993  0.994  0.994
    eigenvectors:
  0.001  0.000  0.704  0.295  0.000
  0.610  0.000  0.099  0.291  0.000
  0.000  0.678  0.000  0.000  0.322
  0.389  0.000  0.197  0.415  0.000
  0.000  0.322  0.000  0.000  0.678
    occupations:
  0.993  0.022  0.000  0.017  0.000
  0.022  0.525 -0.000 -0.374  0.000
  0.000 -0.000  0.494  0.000  0.345
  0.017 -0.374  0.000  0.695 -0.000
  0.000  0.000  0.345 -0.000  0.756
   spin  2
    eigenvalues: 
  0.227  0.247  0.992  0.993  0.993
    eigenvectors:
  0.003  0.000  0.817  0.000  0.180
  0.600  0.000  0.093  0.000  0.308
  0.000  0.740  0.000  0.260  0.000
  0.398  0.000  0.090  0.000  0.512
  0.000  0.260  0.000  0.740  0.000
    occupations:
  0.991  0.030  0.000  0.025  0.000
  0.030  0.533 -0.000 -0.374  0.000
  0.000 -0.000  0.441  0.000  0.327
  0.025 -0.374  0.000  0.688 -0.000
  0.000  0.000  0.327 -0.000  0.799
atomic mag. moment =     0.011189
N of occupied +U levels =   27.250297
 --- exit write_ns ---

     negative rho (up, down):  0.000E+00 1.080E-03
 --- in v_hubbard ---
Hubbard energy    0.5203
 -------

     total cpu time spent up to now is       68.8 secs

     total energy              =   -1457.84651796 Ry
     Harris-Foulkes estimate   =   -1457.82559484 Ry
     estimated scf accuracy    <       0.04552974 Ry

     total magnetization       =     4.00 Bohr mag/cell
     absolute magnetization    =     4.26 Bohr mag/cell

     iteration # 11     ecut=    25.00 Ry     beta=0.40
     Davidson diagonalization with overlap
     ethr =  5.17E-05,  avg # of iterations =  1.0
 --- enter write_ns ---
 LDA+U parameters:
U( 1)     =  5.87390000
alpha( 1) =  0.00000000
U( 2)     =  5.72630000
alpha( 2) =  0.00000000
U( 3)     =  5.89570000
alpha( 3) =  0.00000000
U( 4)     =  5.85880000
alpha( 4) =  0.00000000
atom    1   Tr[ns(na)] (up, down, total) =   4.96706  1.54981  6.51687
   spin  1
    eigenvalues: 
  0.989  0.992  0.995  0.995  0.996
    eigenvectors:
  0.006  0.000  0.649  0.000  0.344
  0.695  0.000  0.072  0.000  0.232
  0.000  0.592  0.000  0.408  0.000
  0.298  0.000  0.278  0.000  0.423
  0.000  0.408  0.000  0.592  0.000
    occupations:
  0.995 -0.001 -0.000 -0.000  0.000
 -0.001  0.991 -0.000 -0.003  0.000
 -0.000 -0.000  0.993  0.000  0.002
 -0.000 -0.003  0.000  0.994 -0.000
  0.000  0.000  0.002 -0.000  0.994
   spin  2
    eigenvalues: 
  0.062  0.065  0.142  0.287  0.993
    eigenvectors:
  0.000  0.590  0.000  0.000  0.410
  0.000  0.120  0.000  0.685  0.195
  0.391  0.000  0.609  0.000  0.000
  0.000  0.291  0.000  0.315  0.395
  0.609  0.000  0.391  0.000  0.000
    occupations:
  0.446 -0.259  0.000  0.376 -0.000
 -0.259  0.398 -0.000 -0.155  0.000
  0.000 -0.000  0.111  0.000 -0.039
  0.376 -0.155  0.000  0.501 -0.000
 -0.000  0.000 -0.039 -0.000  0.093
atomic mag. moment =     3.417245
atom    2   Tr[ns(na)] (up, down, total) =   3.56769  3.40509  6.97278
   spin  1
    eigenvalues: 
  0.263  0.325  0.993  0.993  0.994
    eigenvectors:
  0.000  0.000  0.939  0.061  0.000
  0.599  0.000  0.020  0.381  0.000
  0.000  0.702  0.000  0.000  0.298
  0.400  0.000  0.041  0.558  0.000
  0.000  0.298  0.000  0.000  0.702
    occupations:
  0.993  0.011  0.000  0.009  0.000
  0.011  0.555 -0.000 -0.358  0.000
  0.000 -0.000  0.524  0.000  0.306
  0.009 -0.358  0.000  0.701 -0.000
  0.000  0.000  0.306 -0.000  0.794
   spin  2
    eigenvalues: 
  0.187  0.238  0.993  0.993  0.994
    eigenvectors:
  0.000  0.000  0.652  0.000  0.347
  0.657  0.000  0.128  0.000  0.214
  0.000  0.684  0.000  0.316  0.000
  0.342  0.000  0.219  0.000  0.438
  0.000  0.316  0.000  0.684  0.000
    occupations:
  0.993  0.013  0.000  0.010  0.000
  0.013  0.464 -0.000 -0.382  0.000
  0.000 -0.000  0.477  0.000  0.351
  0.010 -0.382  0.000  0.717 -0.000
  0.000  0.000  0.351 -0.000  0.754
atomic mag. moment =     0.162604
atom    3   Tr[ns(na)] (up, down, total) =   3.43528  3.43765  6.87293
   spin  1
    eigenvalues: 
  0.191  0.265  0.993  0.993  0.994
    eigenvectors:
  0.000  0.001  0.685  0.000  0.314
  0.000  0.689  0.084  0.000  0.227
  0.684  0.000  0.000  0.316  0.000
  0.000  0.310  0.231  0.000  0.459
  0.316  0.000  0.000  0.684  0.000
    occupations:
  0.992 -0.020  0.000 -0.013  0.000
 -0.020  0.491 -0.000 -0.337  0.000
  0.000 -0.000  0.445  0.000  0.373
 -0.013 -0.337  0.000  0.768 -0.000
  0.000  0.000  0.373 -0.000  0.739
   spin  2
    eigenvalues: 
  0.189  0.270  0.993  0.993  0.994
    eigenvectors:
  0.000  0.002  0.762  0.000  0.236
  0.000  0.692  0.056  0.000  0.252
  0.579  0.000  0.000  0.421  0.000
  0.000  0.306  0.182  0.000  0.512
  0.421  0.000  0.000  0.579  0.000
    occupations:
  0.991 -0.028  0.000 -0.018  0.000
 -0.028  0.492 -0.000 -0.333  0.000
  0.000 -0.000  0.528  0.000  0.397
 -0.018 -0.333  0.000  0.772 -0.000
  0.000  0.000  0.397 -0.000  0.654
atomic mag. moment =    -0.002373
atom    4   Tr[ns(na)] (up, down, total) =   3.46224  3.45323  6.91548
   spin  1
    eigenvalues: 
  0.224  0.257  0.993  0.994  0.994
    eigenvectors:
  0.001  0.000  0.642  0.357  0.000
  0.610  0.000  0.122  0.267  0.000
  0.000  0.677  0.000  0.000  0.323
  0.388  0.000  0.235  0.376  0.000
  0.000  0.323  0.000  0.000  0.677
    occupations:
  0.993  0.022  0.000  0.017  0.000
  0.022  0.524 -0.000 -0.375  0.000
  0.000 -0.000  0.495  0.000  0.345
  0.017 -0.375  0.000  0.695 -0.000
  0.000  0.000  0.345 -0.000  0.756
   spin  2
    eigenvalues: 
  0.226  0.249  0.992  0.993  0.993
    eigenvectors:
  0.003  0.000  0.771  0.000  0.227
  0.600  0.000  0.113  0.000  0.287
  0.000  0.741  0.000  0.259  0.000
  0.398  0.000  0.116  0.000  0.486
  0.000  0.259  0.000  0.741  0.000
    occupations:
  0.991  0.030  0.000  0.025  0.000
  0.030  0.533 -0.000 -0.375  0.000
  0.000 -0.000  0.442  0.000  0.326
  0.025 -0.375  0.000  0.688 -0.000
  0.000  0.000  0.326 -0.000  0.800
atomic mag. moment =     0.009013
N of occupied +U levels =   27.278057
 --- exit write_ns ---

     negative rho (up, down):  0.000E+00 1.035E-03
 --- in v_hubbard ---
Hubbard energy    0.6110
 -------

     total cpu time spent up to now is       74.1 secs

     total energy              =   -1457.85183286 Ry
     Harris-Foulkes estimate   =   -1457.84712525 Ry
     estimated scf accuracy    <       0.01616615 Ry

     total magnetization       =     3.99 Bohr mag/cell
     absolute magnetization    =     4.26 Bohr mag/cell

     iteration # 12     ecut=    25.00 Ry     beta=0.40
     Davidson diagonalization with overlap
     ethr =  1.84E-05,  avg # of iterations =  1.1
 --- enter write_ns ---
 LDA+U parameters:
U( 1)     =  5.87390000
alpha( 1) =  0.00000000
U( 2)     =  5.72630000
alpha( 2) =  0.00000000
U( 3)     =  5.89570000
alpha( 3) =  0.00000000
U( 4)     =  5.85880000
alpha( 4) =  0.00000000
atom    1   Tr[ns(na)] (up, down, total) =   4.96711  1.56729  6.53440
   spin  1
    eigenvalues: 
  0.990  0.992  0.995  0.995  0.996
    eigenvectors:
  0.006  0.000  0.655  0.000  0.339
  0.700  0.000  0.070  0.000  0.229
  0.000  0.593  0.000  0.407  0.000
  0.294  0.000  0.274  0.000  0.432
  0.000  0.407  0.000  0.593  0.000
    occupations:
  0.995 -0.001 -0.000 -0.000  0.000
 -0.001  0.991 -0.000 -0.003  0.000
 -0.000 -0.000  0.993  0.000  0.002
 -0.000 -0.003  0.000  0.994 -0.000
  0.000  0.000  0.002 -0.000  0.994
   spin  2
    eigenvalues: 
  0.068  0.068  0.161  0.277  0.993
    eigenvectors:
  0.590  0.000  0.000  0.001  0.409
  0.113  0.000  0.000  0.683  0.204
  0.000  0.395  0.605  0.000  0.000
  0.297  0.000  0.000  0.315  0.387
  0.000  0.605  0.395  0.000  0.000
    occupations:
  0.446 -0.261  0.000  0.372 -0.000
 -0.261  0.400 -0.000 -0.163  0.000
  0.000 -0.000  0.124  0.000 -0.045
  0.372 -0.163  0.000  0.492 -0.000
 -0.000  0.000 -0.045 -0.000  0.105
atomic mag. moment =     3.399814
atom    2   Tr[ns(na)] (up, down, total) =   3.55746  3.40773  6.96519
   spin  1
    eigenvalues: 
  0.259  0.319  0.993  0.993  0.993
    eigenvectors:
  0.000  0.000  0.993  0.007  0.000
  0.596  0.000  0.005  0.399  0.000
  0.000  0.703  0.000  0.000  0.297
  0.403  0.000  0.003  0.594  0.000
  0.000  0.297  0.000  0.000  0.703
    occupations:
  0.993  0.011  0.000  0.009  0.000
  0.011  0.555 -0.000 -0.360  0.000
  0.000 -0.000  0.519  0.000  0.308
  0.009 -0.360  0.000  0.697 -0.000
  0.000  0.000  0.308 -0.000  0.793
   spin  2
    eigenvalues: 
  0.188  0.241  0.992  0.993  0.994
    eigenvectors:
  0.000  0.000  0.654  0.000  0.345
  0.659  0.000  0.127  0.000  0.213
  0.000  0.684  0.000  0.316  0.000
  0.340  0.000  0.219  0.000  0.441
  0.000  0.316  0.000  0.684  0.000
    occupations:
  0.993  0.013  0.000  0.011  0.000
  0.013  0.462 -0.000 -0.382  0.000
  0.000 -0.000  0.478  0.000  0.350
  0.011 -0.382  0.000  0.719 -0.000
  0.000  0.000  0.350 -0.000  0.755
atomic mag. moment =     0.149735
atom    3   Tr[ns(na)] (up, down, total) =   3.44030  3.44355  6.88385
   spin  1
    eigenvalues: 
  0.192  0.269  0.993  0.993  0.994
    eigenvectors:
  0.000  0.001  0.695  0.000  0.304
  0.000  0.689  0.081  0.000  0.230
  0.689  0.000  0.000  0.311  0.000
  0.000  0.310  0.224  0.000  0.466
  0.311  0.000  0.000  0.689  0.000
    occupations:
  0.992 -0.020  0.000 -0.013  0.000
 -0.020  0.494 -0.000 -0.335  0.000
  0.000 -0.000  0.441  0.000  0.371
 -0.013 -0.335  0.000  0.769 -0.000
  0.000  0.000  0.371 -0.000  0.744
   spin  2
    eigenvalues: 
  0.190  0.274  0.992  0.993  0.994
    eigenvectors:
  0.000  0.002  0.774  0.000  0.224
  0.000  0.693  0.052  0.000  0.255
  0.572  0.000  0.000  0.428  0.000
  0.000  0.305  0.174  0.000  0.521
  0.428  0.000  0.000  0.572  0.000
    occupations:
  0.991 -0.028  0.000 -0.018  0.000
 -0.028  0.495 -0.000 -0.331  0.000
  0.000 -0.000  0.534  0.000  0.397
 -0.018 -0.331  0.000  0.774 -0.000
  0.000  0.000  0.397 -0.000  0.649
atomic mag. moment =    -0.003244
[...]
    -6.6313  -6.4471  -6.3491  -6.0626   3.5373   4.0383   4.2395   4.7047
     5.0402   5.1981   5.2358   6.7219   6.7306   6.7777   6.9489   7.7576
     7.7685   7.8454   8.0577   8.0772   8.8146   8.9115   9.0809   9.1370
     9.2136   9.4343   9.7410   9.7780  10.0579  10.1318  13.0310  13.1157
    13.1233  13.2044  13.2901  13.2992  19.3671

     occupation numbers 
     1.0000   1.0000   1.0000   1.0000   1.0000   1.0000   1.0000   1.0000
     1.0000   1.0000   1.0000   1.0000   1.0000   1.0000   1.0000   1.0000
     1.0000   1.0000   1.0000   1.0000   1.0000   1.0000   1.0000   1.0000
     1.0000   1.0000   1.0000   1.0000   1.0000   1.0000   1.0000   1.0000
     1.0000   1.0000   1.0000   1.0000   1.0000   1.0000   1.0000   1.0000
     1.0000   1.0000   1.0000   1.0000   1.0000   1.0000   0.0000   0.0000
     0.0000   0.0000   0.0000   0.0000   0.0000

          k =-0.5000-0.8463-0.7018 (  1212 PWs)   bands (ev):

   -77.9781 -74.9154 -74.8753 -74.3372 -44.5809 -43.0321 -43.0138 -40.6655
   -40.6493 -40.6297 -40.5561 -40.5103 -40.4908 -40.1419 -40.0078 -39.9512
    -6.4999  -6.4679  -6.3465  -6.1524   2.9561   3.6179   4.0524   4.2674
     4.7713   5.4174   6.6530   6.6577   6.8426   6.9317   7.0269   7.8886
     8.0784   8.1411   8.4420   8.7274   8.7479   8.7494   8.7583   8.7726
     9.0999   9.3481   9.6630   9.8009  10.0334  10.1236  12.3035  12.4828
    13.6198  13.6960  13.9222  14.0915  18.2939

     occupation numbers 
     1.0000   1.0000   1.0000   1.0000   1.0000   1.0000   1.0000   1.0000
     1.0000   1.0000   1.0000   1.0000   1.0000   1.0000   1.0000   1.0000
     1.0000   1.0000   1.0000   1.0000   1.0000   1.0000   1.0000   1.0000
     1.0000   1.0000   1.0000   1.0000   1.0000   1.0000   1.0000   1.0000
     1.0000   1.0000   1.0000   1.0000   1.0000   1.0000   1.0000   1.0000
     1.0000   1.0000   1.0000   1.0000   1.0000   1.0000   0.0000   0.0000
     0.0000   0.0000   0.0000   0.0000   0.0000

 ------ SPIN DOWN ----------


          k = 0.0000 0.0000 0.0000 (  1213 PWs)   bands (ev):

   -74.9186 -74.8630 -74.2106 -74.0539 -40.6871 -40.6754 -40.5954 -40.5640
   -40.4922 -40.4655 -40.2978 -39.9891 -39.9119 -39.8268 -39.6045 -39.5952
    -7.3220  -6.3498  -6.0476  -6.0322   3.9205   4.4020   6.4648   6.7697
     7.1760   7.2697   7.3752   7.5102   7.8587   7.8864   8.0624   8.5762
     8.7291   9.2561   9.3137   9.3725   9.5034   9.5209   9.5826   9.7328
     9.7699  10.2109  12.0557  12.1192  13.0410  13.3629  13.4250  13.6808
    13.9635  14.1913  14.2971  14.7205  15.2197

     occupation numbers 
     1.0000   1.0000   1.0000   1.0000   1.0000   1.0000   1.0000   1.0000
     1.0000   1.0000   1.0000   1.0000   1.0000   1.0000   1.0000   1.0000
     1.0000   1.0000   1.0000   1.0000   1.0000   1.0000   1.0000   1.0000
     1.0000   1.0000   1.0000   1.0000   1.0000   1.0000   1.0000   1.0000
     1.0000   1.0000   1.0000   1.0000   1.0000   1.0000   1.0000   1.0000
     1.0000   1.0005   0.0000   0.0000   0.0000   0.0000   0.0000   0.0000
     0.0000   0.0000   0.0000   0.0000   0.0000

          k = 0.0000 0.0000-0.5310 (  1214 PWs)   bands (ev):

   -74.9162 -74.8736 -74.2128 -74.0563 -40.6764 -40.6546 -40.6261 -40.5843
   -40.5023 -40.4778 -40.3328 -40.0256 -39.9131 -39.8070 -39.6151 -39.5813
    -6.8280  -6.8201  -6.1572  -6.0419   5.3192   5.3611   5.8368   6.2391
     6.7936   6.9084   7.5079   7.5777   7.6966   7.7020   7.9320   8.3523
     8.7046   8.8639   8.9625   9.0179   9.3271   9.3665   9.5291   9.5723
     9.6610   9.9308  12.9495  13.0903  13.1671  13.2689  13.6977  13.7526
    13.9186  13.9289  13.9824  14.6540  16.4961

     occupation numbers 
     1.0000   1.0000   1.0000   1.0000   1.0000   1.0000   1.0000   1.0000
     1.0000   1.0000   1.0000   1.0000   1.0000   1.0000   1.0000   1.0000
     1.0000   1.0000   1.0000   1.0000   1.0000   1.0000   1.0000   1.0000
     1.0000   1.0000   1.0000   1.0000   1.0000   1.0000   1.0000   1.0000
     1.0000   1.0000   1.0000   1.0000   1.0000   1.0000   1.0000   1.0000
     1.0000   1.0000   0.0000   0.0000   0.0000   0.0000   0.0000   0.0000
     0.0000   0.0000   0.0000   0.0000   0.0000

          k = 0.0000 0.4231 0.0000 (  1197 PWs)   bands (ev):

   -74.9042 -74.8544 -74.1962 -74.0400 -40.6643 -40.6437 -40.5854 -40.5512
   -40.4853 -40.4516 -40.2856 -39.9756 -39.8802 -39.8168 -39.5882 -39.5846
    -6.9859  -6.2477  -6.0265  -5.9377   4.7813   5.3209   5.9053   6.4180
     6.6148   6.9148   6.9946   7.5714   7.6760   7.8059   8.1483   8.4007
     8.6764   8.9715   9.0058   9.0474   9.2334   9.5344   9.6126   9.6259
     9.9380  10.1235  12.3521  13.0108  13.1110  13.2017  13.6690  13.8434
    13.8970  13.9654  14.2493  14.7138  15.7925

     occupation numbers 
     1.0000   1.0000   1.0000   1.0000   1.0000   1.0000   1.0000   1.0000
     1.0000   1.0000   1.0000   1.0000   1.0000   1.0000   1.0000   1.0000
     1.0000   1.0000   1.0000   1.0000   1.0000   1.0000   1.0000   1.0000
     1.0000   1.0000   1.0000   1.0000   1.0000   1.0000   1.0000   1.0000
     1.0000   1.0000   1.0000   1.0000   1.0000   1.0000   1.0000   1.0000
     1.0000   1.0000   0.0000   0.0000   0.0000   0.0000   0.0000   0.0000
     0.0000   0.0000   0.0000   0.0000   0.0000

          k = 0.0000 0.4231-0.5310 (  1206 PWs)   bands (ev):

   -74.9074 -74.8603 -74.2016 -74.0449 -40.6668 -40.6526 -40.6063 -40.5577
   -40.4778 -40.4696 -40.3002 -39.9963 -39.8862 -39.8222 -39.5965 -39.5893
    -6.5994  -6.5819  -6.0600  -6.0023   5.5747   5.8435   6.0538   6.1226
     6.4080   6.4234   6.8767   6.9078   7.8750   8.0263   8.0365   8.1697
     8.4495   8.5937   8.9616   9.1428   9.1900   9.3422   9.7232   9.8799
    10.1575  10.3002  12.4011  12.5137  13.1153  13.3926  13.6443  13.6763
    13.8823  13.8834  14.2646  14.6255  17.8400

     occupation numbers 
     1.0000   1.0000   1.0000   1.0000   1.0000   1.0000   1.0000   1.0000
     1.0000   1.0000   1.0000   1.0000   1.0000   1.0000   1.0000   1.0000
     1.0000   1.0000   1.0000   1.0000   1.0000   1.0000   1.0000   1.0000
     1.0000   1.0000   1.0000   1.0000   1.0000   1.0000   1.0000   1.0000
     1.0000   1.0000   1.0000   1.0000   1.0000   1.0000   1.0000   1.0000
     1.0001   1.0081   0.0000   0.0000   0.0000   0.0000   0.0000   0.0000
     0.0000   0.0000   0.0000   0.0000   0.0000

          k = 0.0000-0.8463 0.0000 (  1206 PWs)   bands (ev):

   -74.9112 -74.8549 -74.2006 -74.0410 -40.6817 -40.6639 -40.5884 -40.5748
   -40.4868 -40.4293 -40.2876 -39.9648 -39.9170 -39.8219 -39.6166 -39.5917
    -6.4847  -6.1915  -6.1514  -5.8300   5.2230   5.6266   6.0836   6.0902
     6.1311   6.4574   6.7841   7.4047   7.4917   7.6934   8.0814   8.2237
     8.5539   8.7426   9.1178   9.2570   9.4116   9.5205   9.5351   9.7188
     9.9378  10.1429  12.5258  12.5365  13.1773  13.2061  13.6126  13.7775
    13.8464  13.8622  13.9237  15.1868  19.1352

     occupation numbers 
     1.0000   1.0000   1.0000   1.0000   1.0000   1.0000   1.0000   1.0000
     1.0000   1.0000   1.0000   1.0000   1.0000   1.0000   1.0000   1.0000
     1.0000   1.0000   1.0000   1.0000   1.0000   1.0000   1.0000   1.0000
     1.0000   1.0000   1.0000   1.0000   1.0000   1.0000   1.0000   1.0000
     1.0000   1.0000   1.0000   1.0000   1.0000   1.0000   1.0000   1.0000
     1.0000   1.0000   0.0000   0.0000   0.0000   0.0000   0.0000   0.0000
     0.0000   0.0000   0.0000   0.0000   0.0000

          k = 0.0000-0.8463-0.5310 (  1212 PWs)   bands (ev):

   -74.9098 -74.8587 -74.2021 -74.0462 -40.6687 -40.6676 -40.6051 -40.5812
   -40.4847 -40.4644 -40.2915 -39.9875 -39.9085 -39.8275 -39.6130 -39.6029
    -6.3178  -6.3011  -6.0173  -5.9880   5.1919   5.3265   5.4032   5.8809
     6.5396   7.0183   7.1641   7.2016   7.6242   7.9621   8.0317   8.2243
     8.8841   8.9427   8.9789   9.0983   9.1920   9.2735   9.4661   9.7139
     9.7536   9.8785  13.0480  13.0592  13.1465  13.2102  13.7613  13.7928
    13.8001  13.8380  13.9337  14.7440  19.8686

     occupation numbers 
     1.0000   1.0000   1.0000   1.0000   1.0000   1.0000   1.0000   1.0000
     1.0000   1.0000   1.0000   1.0000   1.0000   1.0000   1.0000   1.0000
     1.0000   1.0000   1.0000   1.0000   1.0000   1.0000   1.0000   1.0000
     1.0000   1.0000   1.0000   1.0000   1.0000   1.0000   1.0000   1.0000
     1.0000   1.0000   1.0000   1.0000   1.0000   1.0000   1.0000   1.0000
     1.0000   1.0000   0.0000   0.0000   0.0000   0.0000   0.0000   0.0000
     0.0000   0.0000   0.0000   0.0000   0.0000

          k =-0.5000 0.0000-0.1707 (  1212 PWs)   bands (ev):

   -74.9188 -74.8683 -74.2114 -74.0549 -40.6710 -40.6614 -40.6158 -40.5803
   -40.4874 -40.4865 -40.3236 -40.0147 -39.9088 -39.8134 -39.6113 -39.5857
    -6.8736  -6.7904  -6.1259  -6.0551   5.2832   5.3631   5.8692   6.0628
     6.7968   7.0654   7.3667   7.7378   7.7495   7.8969   7.9492   8.0590
     8.5902   9.0142   9.1068   9.1152   9.2824   9.3840   9.3927   9.4939
     9.6543   9.8746  13.0051  13.1242  13.1556  13.1589  13.7204  13.7722
    13.9092  13.9573  14.0299  14.6530  16.4583

     occupation numbers 
     1.0000   1.0000   1.0000   1.0000   1.0000   1.0000   1.0000   1.0000
     1.0000   1.0000   1.0000   1.0000   1.0000   1.0000   1.0000   1.0000
     1.0000   1.0000   1.0000   1.0000   1.0000   1.0000   1.0000   1.0000
     1.0000   1.0000   1.0000   1.0000   1.0000   1.0000   1.0000   1.0000
     1.0000   1.0000   1.0000   1.0000   1.0000   1.0000   1.0000   1.0000
     1.0000   1.0000   0.0000   0.0000   0.0000   0.0000   0.0000   0.0000
     0.0000   0.0000   0.0000   0.0000   0.0000

          k =-0.5000 0.0000-0.7018 (  1224 PWs)   bands (ev):

   -74.9283 -74.8812 -74.2205 -74.0633 -40.6965 -40.6754 -40.6319 -40.5761
   -40.5234 -40.4969 -40.3372 -40.0269 -39.9110 -39.8512 -39.6219 -39.6114
    -6.7843  -6.5018  -6.4199  -6.1524   5.2298   5.5982   6.1208   6.6950
     6.8273   6.8757   7.0925   7.3405   7.4553   7.4669   7.8941   8.0894
     8.1706   8.3498   8.7055   9.3260   9.5166   9.8820   9.9295  10.0816
    10.1823  10.2388  12.1408  12.4693  12.6898  13.0847  13.3210  13.3595
    13.9484  13.9597  13.9756  15.1657  17.5919

     occupation numbers 
     1.0000   1.0000   1.0000   1.0000   1.0000   1.0000   1.0000   1.0000
     1.0000   1.0000   1.0000   1.0000   1.0000   1.0000   1.0000   1.0000
     1.0000   1.0000   1.0000   1.0000   1.0000   1.0000   1.0000   1.0000
     1.0000   1.0000   1.0000   1.0000   1.0000   1.0000   1.0000   1.0000
     1.0000   1.0000   1.0000   1.0000   1.0000   1.0000   1.0000   1.0000
     1.0002   1.0013   0.0000   0.0000   0.0000   0.0000   0.0000   0.0000
     0.0000   0.0000   0.0000   0.0000   0.0000

          k =-0.5000 0.4231-0.1707 (  1202 PWs)   bands (ev):

   -74.9048 -74.8587 -74.1996 -74.0425 -40.6743 -40.6474 -40.5793 -40.5550
   -40.4962 -40.4531 -40.2997 -39.9894 -39.8823 -39.8180 -39.5888 -39.5864
    -6.6380  -6.5542  -6.0583  -5.9919   5.7296   5.7358   6.1045   6.1695
     6.3116   6.3699   6.8640   6.8906   7.9371   7.9954   8.2008   8.2886
     8.3389   8.3928   8.9959   9.1343   9.2552   9.3659   9.7393   9.8296
    10.1542  10.3034  12.4054  12.4932  13.1324  13.4095  13.6371  13.6762
    13.8811  13.8901  14.2682  14.6201  17.9074

     occupation numbers 
     1.0000   1.0000   1.0000   1.0000   1.0000   1.0000   1.0000   1.0000
     1.0000   1.0000   1.0000   1.0000   1.0000   1.0000   1.0000   1.0000
     1.0000   1.0000   1.0000   1.0000   1.0000   1.0000   1.0000   1.0000
     1.0000   1.0000   1.0000   1.0000   1.0000   1.0000   1.0000   1.0000
     1.0000   1.0000   1.0000   1.0000   1.0000   1.0000   1.0000   1.0000
     1.0001   1.0088   0.0000   0.0000   0.0000   0.0000   0.0000   0.0000
     0.0000   0.0000   0.0000   0.0000   0.0000

          k =-0.5000 0.4231-0.7018 (  1214 PWs)   bands (ev):

   -74.9150 -74.8661 -74.2093 -74.0509 -40.6650 -40.6631 -40.6158 -40.5650
   -40.4946 -40.4837 -40.3225 -40.0145 -39.8985 -39.8177 -39.5995 -39.5903
    -6.6025  -6.3487  -6.2804  -6.0238   5.0073   5.3877   5.9516   6.2194
     6.4948   6.9998   7.1670   7.4136   7.4473   7.9497   8.0769   8.2831
     8.5332   8.6981   8.7279   9.0525   9.2884   9.7062   9.7128   9.8658
     9.9136   9.9309  12.4326  12.9876  13.1349  13.1842  13.5208  13.8681
    13.8947  13.9609  14.1461  14.7306  18.1982

     occupation numbers 
     1.0000   1.0000   1.0000   1.0000   1.0000   1.0000   1.0000   1.0000
     1.0000   1.0000   1.0000   1.0000   1.0000   1.0000   1.0000   1.0000
     1.0000   1.0000   1.0000   1.0000   1.0000   1.0000   1.0000   1.0000
     1.0000   1.0000   1.0000   1.0000   1.0000   1.0000   1.0000   1.0000
     1.0000   1.0000   1.0000   1.0000   1.0000   1.0000   1.0000   1.0000
     1.0000   1.0000   0.0000   0.0000   0.0000   0.0000   0.0000   0.0000
     0.0000   0.0000   0.0000   0.0000   0.0000

          k =-0.5000-0.8463-0.1707 (  1212 PWs)   bands (ev):

   -74.9065 -74.8638 -74.2028 -74.0463 -40.6711 -40.6702 -40.5957 -40.5775
   -40.4927 -40.4715 -40.3092 -40.0003 -39.9070 -39.8178 -39.6117 -39.5890
    -6.3546  -6.2658  -6.0388  -5.9675   5.2666   5.2926   5.3214   6.0313
     6.8020   6.8665   6.9029   7.2782   7.8173   7.8947   7.9363   8.0183
     8.8825   8.9255   8.9686   9.0028   9.1889   9.3369   9.5552   9.8140
     9.8217   9.8513  12.9849  13.1319  13.1737  13.1764  13.7624  13.7800
    13.8166  13.8377  13.8919  14.7274  19.8530

     occupation numbers 
     1.0000   1.0000   1.0000   1.0000   1.0000   1.0000   1.0000   1.0000
     1.0000   1.0000   1.0000   1.0000   1.0000   1.0000   1.0000   1.0000
     1.0000   1.0000   1.0000   1.0000   1.0000   1.0000   1.0000   1.0000
     1.0000   1.0000   1.0000   1.0000   1.0000   1.0000   1.0000   1.0000
     1.0000   1.0000   1.0000   1.0000   1.0000   1.0000   1.0000   1.0000
     1.0000   1.0000   0.0000   0.0000   0.0000   0.0000   0.0000   0.0000
     0.0000   0.0000   0.0000   0.0000   0.0000

          k =-0.5000-0.8463-0.7018 (  1212 PWs)   bands (ev):

   -74.9057 -74.8575 -74.2025 -74.0442 -40.6673 -40.6428 -40.6298 -40.5411
   -40.4972 -40.4809 -40.3287 -40.0156 -39.8766 -39.8185 -39.5907 -39.5773
    -6.3936  -6.2140  -6.0906  -5.9006   3.8947   4.3583   6.7287   6.7384
     6.7642   6.8644   7.3033   7.4537   7.5566   7.7363   8.5624   8.7532
     8.7833   8.8163   8.8227   9.1288   9.2535   9.4041   9.4748   9.6015
     9.6633  10.0011  12.2584  12.4859  13.0475  13.5754  13.6487  13.8704
    14.1021  14.2063  14.6560  15.2125  18.4582

     occupation numbers 
     1.0000   1.0000   1.0000   1.0000   1.0000   1.0000   1.0000   1.0000
     1.0000   1.0000   1.0000   1.0000   1.0000   1.0000   1.0000   1.0000
     1.0000   1.0000   1.0000   1.0000   1.0000   1.0000   1.0000   1.0000
     1.0000   1.0000   1.0000   1.0000   1.0000   1.0000   1.0000   1.0000
     1.0000   1.0000   1.0000   1.0000   1.0000   1.0000   1.0000   1.0000
     1.0000   1.0000   0.0000   0.0000   0.0000   0.0000   0.0000   0.0000
     0.0000   0.0000   0.0000   0.0000   0.0000

     the Fermi energy is    10.6504 ev

!    total energy              =   -1457.85234312 Ry
     Harris-Foulkes estimate   =   -1457.85233944 Ry
     estimated scf accuracy    <       0.00000098 Ry

     total all-electron energy =    -10758.848128 Ry

     The total energy is the sum of the following terms:

     one-electron contribution =    -548.59415538 Ry
     hartree contribution      =     322.62024274 Ry
     xc contribution           =    -165.69328703 Ry
     ewald contribution        =    -744.67779108 Ry
     Hubbard energy            =       0.59927519 Ry
     one-center paw contrib.   =    -322.10696924 Ry
      -> PAW hartree energy AE =     423.48937965 Ry
      -> PAW hartree energy PS =    -421.98118196 Ry
      -> PAW xc energy AE      =    -213.36623875 Ry
      -> PAW xc energy PS      =      68.17249045 Ry
      -> total E_H with PAW    =     324.12844043 Ry
      -> total E_XC with PAW   =    -310.88703534 Ry
     smearing contrib. (-TS)   =       0.00034168 Ry

     total magnetization       =     4.00 Bohr mag/cell
     absolute magnetization    =     4.12 Bohr mag/cell

     convergence has been achieved in 155 iterations

     Writing output data file espresso.save

     init_run     :      6.89s CPU      7.42s WALL (       1 calls)
     electrons    :    701.00s CPU    863.86s WALL (       1 calls)

     Called by init_run:
     wfcinit      :      1.88s CPU      2.43s WALL (       1 calls)
     wfcinit:atom :      0.03s CPU      0.03s WALL (      24 calls)
     wfcinit:wfcr :      1.52s CPU      2.05s WALL (      24 calls)
     potinit      :      1.89s CPU      1.54s WALL (       1 calls)

     Called by electrons:
     c_bands      :    438.30s CPU    619.07s WALL (     155 calls)
     sum_band     :    157.78s CPU    185.14s WALL (     155 calls)
     v_of_rho     :      2.28s CPU      1.23s WALL (     156 calls)
     v_h          :      0.08s CPU      0.12s WALL (     156 calls)
     v_xc         :      2.20s CPU      1.10s WALL (     156 calls)
     newd         :     29.39s CPU     30.25s WALL (     156 calls)
     PAW_pot      :     72.25s CPU     26.53s WALL (     156 calls)
     mix_rho      :      0.95s CPU      0.79s WALL (     155 calls)

     Called by c_bands:
     init_us_2    :      5.38s CPU      9.91s WALL (    7488 calls)
     cegterg      :    430.16s CPU    607.05s WALL (    3720 calls)

     Called by sum_band:
     sum_band:bec :      1.83s CPU      2.37s WALL (    3720 calls)
     addusdens    :     85.77s CPU     83.27s WALL (     155 calls)

     Called by *egterg:
     h_psi        :    259.11s CPU    375.00s WALL (    8623 calls)
     s_psi        :     13.84s CPU      7.76s WALL (    8647 calls)
     g_psi        :      0.41s CPU      0.40s WALL (    4879 calls)
     cdiaghg      :    107.73s CPU    185.09s WALL (    8599 calls)
     cegterg:over :     16.95s CPU     11.48s WALL (    4879 calls)
     cegterg:upda :      8.62s CPU      4.65s WALL (    4879 calls)
     cegterg:last :      8.78s CPU      3.62s WALL (    3720 calls)

     Called by h_psi:
     h_psi:pot    :    249.34s CPU    366.28s WALL (    8623 calls)
     h_psi:calbec :     15.22s CPU     10.56s WALL (    8623 calls)
     vloc_psi     :    220.34s CPU    348.31s WALL (    8623 calls)
     add_vuspsi   :     13.75s CPU      7.36s WALL (    8623 calls)
     vhpsi        :      9.02s CPU      8.05s WALL (    8623 calls)

     General routines
     calbec       :     27.22s CPU     19.59s WALL (   24710 calls)
     fft          :      2.28s CPU      2.43s WALL (    2642 calls)
     ffts         :      0.19s CPU      0.24s WALL (     622 calls)
     fftw         :    215.77s CPU    346.35s WALL ( 1005168 calls)
     interpolate  :      0.80s CPU      0.69s WALL (     622 calls)
     davcio       :      0.00s CPU      0.00s WALL (      24 calls)

     Parallel routines
     fft_scatter  :     37.03s CPU     40.70s WALL ( 1008432 calls)

     Hubbard U routines
     new_ns       :      1.55s CPU      1.63s WALL (     155 calls)
     vhpsi        :      9.02s CPU      8.05s WALL (    8623 calls)

     PAW routines
     PAW_pot      :     72.25s CPU     26.53s WALL (     156 calls)
     PAW_symme    :      0.09s CPU      0.08s WALL (     311 calls)

     PWSCF        : 11m50.00s CPU    14m33.71s WALL


   This run was terminated on:   2:27:58  10Jan2024            

=------------------------------------------------------------------------------=
   JOB DONE.
=------------------------------------------------------------------------------=
