
     Program PWSCF v.6.1 starts on  9Jan2024 at 21:13: 5 

     This program is part of the open-source Quantum ESPRESSO suite
     for quantum simulation of materials; please cite
         "P. Giannozzi et al., J. Phys.:Condens. Matter 21 395502 (2009);
          URL http://www.quantum-espresso.org", 
     in publications or presentations arising from this work. More details at
     http://www.quantum-espresso.org/quote

     Parallel version (MPI & OpenMP), running on      50 processor cores
     Number of MPI processes:                 5
     Threads/MPI process:                    10
     R & G space division:  proc/nbgrp/npool/nimage =       5
     Reading input from espresso.in
Warning: card &DOS ignored
Warning: card     DEGAUSS =  1.00000E-02 ignored
Warning: card     DELTAE  =  1.00000E-02 ignored
Warning: card     EMAX    =  5.00000E+01 ignored
Warning: card     EMIN    = -5.00000E+01 ignored
Warning: card     FILDOS  = "ESPRESSO.DOS" ignored
Warning: card     NGAUSS  = 0 ignored
Warning: card     OUTDIR  = "./" ignored
Warning: card     PREFIX  = "ESPRESSO" ignored
Warning: card / ignored
Warning: card &PROJWFC ignored
Warning: card     DEGAUSS =  1.00000E-02 ignored
Warning: card     DELTAE  =  1.00000E-02 ignored
Warning: card     EMAX    =  5.00000E+01 ignored
Warning: card     EMIN    = -5.00000E+01 ignored
Warning: card     FILPDOS = "ESPRESSO" ignored
Warning: card     NGAUSS  = 0 ignored
Warning: card     OUTDIR  = "./" ignored
Warning: card     PREFIX  = "ESPRESSO" ignored
Warning: card / ignored

     Current dimensions of program PWSCF are:
     Max number of different atomic species (ntypx) = 10
     Max number of k-points (npk) =  40000
     Max angular momentum in pseudopotentials (lmaxx) =  3
     Message from routine iosys:
     wrong startingpot: use default (2)

     Atomic positions and unit cell read from directory:
     ./espresso.save/

               file Fe.pz-spn-kjpaw_psl.0.2.1.UPF: wavefunction(s)  3D renormalized
               file O.pz-n-kjpaw_psl.0.1.UPF: wavefunction(s)  2P renormalized

     Subspace diagonalization in iterative solution of the eigenvalue problem:
     a serial algorithm will be used

     Found symmetry operation: I + (  0.5000 -0.5000  0.0000)
     This is a supercell, fractional translations are disabled

     Parallelization info
     --------------------
     sticks:   dense  smooth     PW     G-vecs:    dense   smooth      PW
     Min         301     134     44                10826     3203     608
     Max         302     135     45                10827     3205     611
     Sum        1509     673    221                54131    16021    3049



     bravais-lattice index     =            0
     lattice parameter (alat)  =      10.1022  a.u.
     unit-cell volume          =     573.5565 (a.u.)^3
     number of atoms/cell      =            8
     number of atomic types    =            2
     number of electrons       =        88.00
     number of Kohn-Sham states=           68
     kinetic-energy cutoff     =      35.0000  Ry
     charge density cutoff     =     315.0000  Ry
     Exchange-correlation      =  SLA  PZ   NOGX NOGC ( 1  1  0  0 0 0)

     celldm(1)=  10.102230  celldm(2)=   0.590841  celldm(3)=   0.994962
     celldm(4)=   0.000000  celldm(5)=  -0.323174  celldm(6)=   0.000000

     crystal axes: (cart. coord. in units of alat)
               a(1) = (   1.000000   0.000000   0.000000 )  
               a(2) = (   0.000000   0.590841   0.000000 )  
               a(3) = (  -0.321546   0.000000   0.941572 )  

     reciprocal axes: (cart. coord. in units 2 pi/alat)
               b(1) = (  1.000000 -0.000000  0.341499 )  
               b(2) = (  0.000000  1.692502 -0.000000 )  
               b(3) = (  0.000000  0.000000  1.062053 )  


     PseudoPot. # 1 for Fe read from file:
     C:\Users\didar\.burai\.pseudopot/Fe.pz-spn-kjpaw_psl.0.2.1.UPF
     MD5 check sum: 807bdef9fce1f7856b34b8edf4aa6c35
     Pseudo is Projector augmented-wave + core cor, Zval = 16.0
     Generated using "atomic" code by A. Dal Corso  v.5.0.99 svn rev. 10869
     Shape of augmentation charge: PSQ
     Using radial grid of 1191 points,  6 beta functions with: 
                l(1) =   0
                l(2) =   0
                l(3) =   1
                l(4) =   1
                l(5) =   2
                l(6) =   2
     Q(r) pseudized with 0 coefficients 


     PseudoPot. # 2 for  O read from file:
     C:\Users\didar\.burai\.pseudopot/O.pz-n-kjpaw_psl.0.1.UPF
     MD5 check sum: 914e026d28643bae2a0dd90dfe714ed6
     Pseudo is Projector augmented-wave + core cor, Zval =  6.0
     Generated using "atomic" code by A. Dal Corso  v.5.0.99 svn rev. 10869
     Shape of augmentation charge: BESSEL
     Using radial grid of 1095 points,  4 beta functions with: 
                l(1) =   0
                l(2) =   0
                l(3) =   1
                l(4) =   1
     Q(r) pseudized with 0 coefficients 


     atomic species   valence    mass     pseudopotential
        Fe            16.00    55.84500     Fe( 1.00)
        O              6.00    15.99940      O( 1.00)

     Starting magnetic structure 
     atomic species   magnetization
        Fe           0.200
        O            0.000

      4 Sym. Ops., with inversion, found


                                    s                        frac. trans.

      isym =  1     identity                                     

 cryst.   s( 1) = (     1          0          0      )
                  (     0          1          0      )
                  (     0          0          1      )

 cart.    s( 1) = (  1.0000000  0.0000000  0.0000000 )
                  (  0.0000000  1.0000000  0.0000000 )
                  (  0.0000000  0.0000000  1.0000000 )


      isym =  2     180 deg rotation - cart. axis [0,1,0]        

 cryst.   s( 2) = (    -1          0          0      )
                  (     0          1          0      )
                  (     0          0         -1      )

 cart.    s( 2) = ( -1.0000000  0.0000000  0.0000000 )
                  (  0.0000000  1.0000000  0.0000000 )
                  (  0.0000000  0.0000000 -1.0000000 )


      isym =  3     inversion                                    

 cryst.   s( 3) = (    -1          0          0      )
                  (     0         -1          0      )
                  (     0          0         -1      )

 cart.    s( 3) = ( -1.0000000  0.0000000  0.0000000 )
                  (  0.0000000 -1.0000000  0.0000000 )
                  (  0.0000000  0.0000000 -1.0000000 )


      isym =  4     inv. 180 deg rotation - cart. axis [0,1,0]   

 cryst.   s( 4) = (     1          0          0      )
                  (     0         -1          0      )
                  (     0          0          1      )

 cart.    s( 4) = (  1.0000000  0.0000000  0.0000000 )
                  (  0.0000000 -1.0000000  0.0000000 )
                  (  0.0000000  0.0000000  1.0000000 )


   Cartesian axes

     site n.     atom                  positions (alat units)
         1           Fe  tau(   1) = (   0.0000000   0.0000000   0.0000000  )
         2           Fe  tau(   2) = (   0.3392292   0.0000000   0.4707874  )
         3           Fe  tau(   3) = (   0.4999998   0.2954206   0.0000000  )
         4           Fe  tau(   4) = (  -0.1607707   0.2954206   0.4707874  )
         5           O   tau(   5) = (   0.6897287   0.0000000   0.2369702  )
         6           O   tau(   6) = (  -0.0112704   0.0000000   0.7046043  )
         7           O   tau(   7) = (   0.1897289   0.2954206   0.2369702  )
         8           O   tau(   8) = (   0.4887294   0.2954206   0.7046043  )

   Crystallographic axes

     site n.     atom                  positions (cryst. coord.)
         1           Fe  tau(   1) = (  0.0000000  0.0000000  0.0000000  )
         2           Fe  tau(   2) = (  0.5000026  0.0000000  0.5000013  )
         3           Fe  tau(   3) = (  0.4999998  0.5000000  0.0000000  )
         4           Fe  tau(   4) = (  0.0000028  0.5000000  0.5000013  )
         5           O   tau(   5) = (  0.7706538  0.0000000  0.2516750  )
         6           O   tau(   6) = (  0.2293513  0.0000000  0.7483273  )
         7           O   tau(   7) = (  0.2706540  0.5000000  0.2516750  )
         8           O   tau(   8) = (  0.7293511  0.5000000  0.7483273  )

     number of k points=    89  Marzari-Vanderbilt smearing, width (Ry)=  0.0100
                       cart. coord. in units 2pi/alat
        k(    1) = (   0.0000000   0.0000000   0.0000000), wk =   0.0112360
        k(    2) = (   0.0333333   0.0564167   0.0113833), wk =   0.0112360
        k(    3) = (   0.0666667   0.1128335   0.0227666), wk =   0.0112360
        k(    4) = (   0.1000000   0.1692502   0.0341499), wk =   0.0112360
        k(    5) = (   0.1333333   0.2256670   0.0455332), wk =   0.0112360
        k(    6) = (   0.1666667   0.2820837   0.0569165), wk =   0.0112360
        k(    7) = (   0.2000000   0.3385005   0.0682998), wk =   0.0112360
        k(    8) = (   0.2333333   0.3949172   0.0796831), wk =   0.0112360
        k(    9) = (   0.2666667   0.4513339   0.0910664), wk =   0.0112360
        k(   10) = (   0.3000000   0.5077507   0.1024497), wk =   0.0112360
        k(   11) = (   0.3333333   0.5641674   0.1138330), wk =   0.0112360
        k(   12) = (   0.3666667   0.6205842   0.1252163), wk =   0.0112360
        k(   13) = (   0.4000000   0.6770009   0.1365996), wk =   0.0112360
        k(   14) = (   0.4333333   0.7334177   0.1479829), wk =   0.0112360
        k(   15) = (   0.4666667   0.7898344   0.1593662), wk =   0.0112360
        k(   16) = (   0.5000000   0.8462511   0.1707495), wk =   0.0112360
        k(   17) = (   0.5000000   0.9066976   0.2086800), wk =   0.0112360
        k(   18) = (   0.5000000   0.9671442   0.2466104), wk =   0.0112360
        k(   19) = (   0.5000000   1.0275907   0.2845409), wk =   0.0112360
        k(   20) = (   0.5000000   1.0880372   0.3224714), wk =   0.0112360
        k(   21) = (   0.5000000   1.1484837   0.3604019), wk =   0.0112360
        k(   22) = (   0.5000000   1.2089302   0.3983323), wk =   0.0112360
        k(   23) = (   0.5000000   1.2693767   0.4362628), wk =   0.0112360
        k(   24) = (   0.4750000   1.2693767   0.4542767), wk =   0.0112360
        k(   25) = (   0.4500000   1.2693767   0.4722905), wk =   0.0112360
        k(   26) = (   0.4250000   1.2693767   0.4903044), wk =   0.0112360
        k(   27) = (   0.4000000   1.2693767   0.5083182), wk =   0.0112360
        k(   28) = (   0.3750000   1.2693767   0.5263321), wk =   0.0112360
        k(   29) = (   0.3500000   1.1847516   0.4912433), wk =   0.0112360
        k(   30) = (   0.3250000   1.1001265   0.4561545), wk =   0.0112360
        k(   31) = (   0.3000000   1.0155014   0.4210657), wk =   0.0112360
        k(   32) = (   0.2750000   0.9308763   0.3859769), wk =   0.0112360
        k(   33) = (   0.2500000   0.8462511   0.3508881), wk =   0.0112360
        k(   34) = (   0.2250000   0.7616260   0.3157993), wk =   0.0112360
        k(   35) = (   0.2000000   0.6770009   0.2807105), wk =   0.0112360
        k(   36) = (   0.1750000   0.5923758   0.2456216), wk =   0.0112360
        k(   37) = (   0.1500000   0.5077507   0.2105328), wk =   0.0112360
        k(   38) = (   0.1250000   0.4231256   0.1754440), wk =   0.0112360
        k(   39) = (   0.1000000   0.3385005   0.1403552), wk =   0.0112360
        k(   40) = (   0.0750000   0.2538753   0.1052664), wk =   0.0112360
        k(   41) = (   0.0500000   0.1692502   0.0701776), wk =   0.0112360
        k(   42) = (   0.0250000   0.0846251   0.0350888), wk =   0.0112360
        k(   43) = (   0.0000000   0.0000000   0.0000000), wk =   0.0112360
        k(   44) = (   0.0384615   0.0650962   0.0539828), wk =   0.0112360
        k(   45) = (   0.0769231   0.1301925   0.1079656), wk =   0.0112360
        k(   46) = (   0.1153846   0.1952887   0.1619483), wk =   0.0112360
        k(   47) = (   0.1538462   0.2603850   0.2159311), wk =   0.0112360
        k(   48) = (   0.1923077   0.3254812   0.2699139), wk =   0.0112360
        k(   49) = (   0.2307692   0.3905774   0.3238967), wk =   0.0112360
        k(   50) = (   0.2692308   0.4556737   0.3778795), wk =   0.0112360
        k(   51) = (   0.3076923   0.5207699   0.4318622), wk =   0.0112360
        k(   52) = (   0.3461538   0.5858662   0.4858450), wk =   0.0112360
        k(   53) = (   0.3846154   0.6509624   0.5398278), wk =   0.0112360
        k(   54) = (   0.4230769   0.7160587   0.5938106), wk =   0.0112360
        k(   55) = (   0.4615385   0.7811549   0.6477934), wk =   0.0112360
        k(   56) = (   0.5000000   0.8462511   0.7017761), wk =   0.0112360
        k(   57) = (   0.5138889   0.8697581   0.6770177), wk =   0.0112360
        k(   58) = (   0.5277778   0.8932651   0.6522593), wk =   0.0112360
        k(   59) = (   0.5416667   0.9167721   0.6275008), wk =   0.0112360
        k(   60) = (   0.5555556   0.9402790   0.6027424), wk =   0.0112360
        k(   61) = (   0.5694444   0.9637860   0.5779839), wk =   0.0112360
        k(   62) = (   0.5833333   0.9872930   0.5532255), wk =   0.0112360
        k(   63) = (   0.5972222   1.0108000   0.5284671), wk =   0.0112360
        k(   64) = (   0.6111111   1.0343069   0.5037086), wk =   0.0112360
        k(   65) = (   0.6250000   1.0578139   0.4789502), wk =   0.0112360
        k(   66) = (   0.6000000   1.1001265   0.4704127), wk =   0.0112360
        k(   67) = (   0.5750000   1.1424390   0.4618752), wk =   0.0112360
        k(   68) = (   0.5500000   1.1847516   0.4533378), wk =   0.0112360
        k(   69) = (   0.5250000   1.2270642   0.4448003), wk =   0.0112360
        k(   70) = (   0.5000000   1.2693767   0.4362628), wk =   0.0112360
        k(   71) = (   0.5000000   1.2270642   0.4628141), wk =   0.0112360
        k(   72) = (   0.5000000   1.1847516   0.4893655), wk =   0.0112360
        k(   73) = (   0.5000000   1.1424390   0.5159168), wk =   0.0112360
        k(   74) = (   0.5000000   1.1001265   0.5424681), wk =   0.0112360
        k(   75) = (   0.5000000   1.0578139   0.5690195), wk =   0.0112360
        k(   76) = (   0.5000000   1.0155014   0.5955708), wk =   0.0112360
        k(   77) = (   0.5000000   0.9731888   0.6221221), wk =   0.0112360
        k(   78) = (   0.5000000   0.9308763   0.6486735), wk =   0.0112360
        k(   79) = (   0.5000000   0.8885637   0.6752248), wk =   0.0112360
        k(   80) = (   0.5000000   0.8462511   0.7017761), wk =   0.0112360
        k(   81) = (   0.4861111   0.8932651   0.6822824), wk =   0.0112360
        k(   82) = (   0.4722222   0.9402790   0.6627886), wk =   0.0112360
        k(   83) = (   0.4583333   0.9872930   0.6432948), wk =   0.0112360
        k(   84) = (   0.4444444   1.0343069   0.6238010), wk =   0.0112360
        k(   85) = (   0.4305556   1.0813209   0.6043072), wk =   0.0112360
        k(   86) = (   0.4166667   1.1283349   0.5848134), wk =   0.0112360
        k(   87) = (   0.4027778   1.1753488   0.5653197), wk =   0.0112360
        k(   88) = (   0.3888889   1.2223628   0.5458259), wk =   0.0112360
        k(   89) = (   0.3750000   1.2693767   0.5263321), wk =   0.0112360

                       cryst. coord.
        k(    1) = (   0.0000000   0.0000000   0.0000000), wk =   0.0112360
        k(    2) = (   0.0333333   0.0333333  -0.0000000), wk =   0.0112360
        k(    3) = (   0.0666667   0.0666667  -0.0000000), wk =   0.0112360
        k(    4) = (   0.1000000   0.1000000   0.0000000), wk =   0.0112360
        k(    5) = (   0.1333333   0.1333333  -0.0000000), wk =   0.0112360
        k(    6) = (   0.1666667   0.1666667   0.0000000), wk =   0.0112360
        k(    7) = (   0.2000000   0.2000000   0.0000000), wk =   0.0112360
        k(    8) = (   0.2333333   0.2333333   0.0000000), wk =   0.0112360
        k(    9) = (   0.2666667   0.2666667  -0.0000000), wk =   0.0112360
        k(   10) = (   0.3000000   0.3000000   0.0000000), wk =   0.0112360
        k(   11) = (   0.3333333   0.3333333   0.0000000), wk =   0.0112360
        k(   12) = (   0.3666667   0.3666667   0.0000000), wk =   0.0112360
        k(   13) = (   0.4000000   0.4000000   0.0000000), wk =   0.0112360
        k(   14) = (   0.4333333   0.4333333  -0.0000000), wk =   0.0112360
        k(   15) = (   0.4666667   0.4666667   0.0000000), wk =   0.0112360
        k(   16) = (   0.5000000   0.5000000   0.0000000), wk =   0.0112360
        k(   17) = (   0.5000000   0.5357143   0.0357143), wk =   0.0112360
        k(   18) = (   0.5000000   0.5714286   0.0714286), wk =   0.0112360
        k(   19) = (   0.5000000   0.6071429   0.1071429), wk =   0.0112360
        k(   20) = (   0.5000000   0.6428571   0.1428571), wk =   0.0112360
        k(   21) = (   0.5000000   0.6785714   0.1785714), wk =   0.0112360
        k(   22) = (   0.5000000   0.7142857   0.2142857), wk =   0.0112360
        k(   23) = (   0.5000000   0.7500000   0.2500000), wk =   0.0112360
        k(   24) = (   0.4750000   0.7500000   0.2750000), wk =   0.0112360
        k(   25) = (   0.4500000   0.7500000   0.3000000), wk =   0.0112360
        k(   26) = (   0.4250000   0.7500000   0.3250000), wk =   0.0112360
        k(   27) = (   0.4000000   0.7500000   0.3500000), wk =   0.0112360
        k(   28) = (   0.3750000   0.7500000   0.3750000), wk =   0.0112360
        k(   29) = (   0.3500000   0.7000000   0.3500000), wk =   0.0112360
        k(   30) = (   0.3250000   0.6500000   0.3250000), wk =   0.0112360
        k(   31) = (   0.3000000   0.6000000   0.3000000), wk =   0.0112360
        k(   32) = (   0.2750000   0.5500000   0.2750000), wk =   0.0112360
        k(   33) = (   0.2500000   0.5000000   0.2500000), wk =   0.0112360
        k(   34) = (   0.2250000   0.4500000   0.2250000), wk =   0.0112360
        k(   35) = (   0.2000000   0.4000000   0.2000000), wk =   0.0112360
        k(   36) = (   0.1750000   0.3500000   0.1750000), wk =   0.0112360
        k(   37) = (   0.1500000   0.3000000   0.1500000), wk =   0.0112360
        k(   38) = (   0.1250000   0.2500000   0.1250000), wk =   0.0112360
        k(   39) = (   0.1000000   0.2000000   0.1000000), wk =   0.0112360
        k(   40) = (   0.0750000   0.1500000   0.0750000), wk =   0.0112360
        k(   41) = (   0.0500000   0.1000000   0.0500000), wk =   0.0112360
        k(   42) = (   0.0250000   0.0500000   0.0250000), wk =   0.0112360
        k(   43) = (   0.0000000   0.0000000   0.0000000), wk =   0.0112360
        k(   44) = (   0.0384615   0.0384615   0.0384615), wk =   0.0112360
        k(   45) = (   0.0769231   0.0769231   0.0769231), wk =   0.0112360
        k(   46) = (   0.1153846   0.1153846   0.1153846), wk =   0.0112360
        k(   47) = (   0.1538462   0.1538462   0.1538462), wk =   0.0112360
        k(   48) = (   0.1923077   0.1923077   0.1923077), wk =   0.0112360
        k(   49) = (   0.2307692   0.2307692   0.2307692), wk =   0.0112360
        k(   50) = (   0.2692308   0.2692308   0.2692308), wk =   0.0112360
        k(   51) = (   0.3076923   0.3076923   0.3076923), wk =   0.0112360
        k(   52) = (   0.3461538   0.3461538   0.3461538), wk =   0.0112360
        k(   53) = (   0.3846154   0.3846154   0.3846154), wk =   0.0112360
        k(   54) = (   0.4230769   0.4230769   0.4230769), wk =   0.0112360
        k(   55) = (   0.4615385   0.4615385   0.4615385), wk =   0.0112360
        k(   56) = (   0.5000000   0.5000000   0.5000000), wk =   0.0112360
        k(   57) = (   0.5138889   0.5138889   0.4722222), wk =   0.0112360
        k(   58) = (   0.5277778   0.5277778   0.4444444), wk =   0.0112360
        k(   59) = (   0.5416667   0.5416667   0.4166667), wk =   0.0112360
        k(   60) = (   0.5555556   0.5555556   0.3888889), wk =   0.0112360
        k(   61) = (   0.5694444   0.5694444   0.3611111), wk =   0.0112360
        k(   62) = (   0.5833333   0.5833333   0.3333333), wk =   0.0112360
        k(   63) = (   0.5972222   0.5972222   0.3055556), wk =   0.0112360
        k(   64) = (   0.6111111   0.6111111   0.2777778), wk =   0.0112360
        k(   65) = (   0.6250000   0.6250000   0.2500000), wk =   0.0112360
        k(   66) = (   0.6000000   0.6500000   0.2500000), wk =   0.0112360
        k(   67) = (   0.5750000   0.6750000   0.2500000), wk =   0.0112360
        k(   68) = (   0.5500000   0.7000000   0.2500000), wk =   0.0112360
        k(   69) = (   0.5250000   0.7250000   0.2500000), wk =   0.0112360
        k(   70) = (   0.5000000   0.7500000   0.2500000), wk =   0.0112360
        k(   71) = (   0.5000000   0.7250000   0.2750000), wk =   0.0112360
        k(   72) = (   0.5000000   0.7000000   0.3000000), wk =   0.0112360
        k(   73) = (   0.5000000   0.6750000   0.3250000), wk =   0.0112360
        k(   74) = (   0.5000000   0.6500000   0.3500000), wk =   0.0112360
        k(   75) = (   0.5000000   0.6250000   0.3750000), wk =   0.0112360
        k(   76) = (   0.5000000   0.6000000   0.4000000), wk =   0.0112360
        k(   77) = (   0.5000000   0.5750000   0.4250000), wk =   0.0112360
        k(   78) = (   0.5000000   0.5500000   0.4500000), wk =   0.0112360
        k(   79) = (   0.5000000   0.5250000   0.4750000), wk =   0.0112360
        k(   80) = (   0.5000000   0.5000000   0.5000000), wk =   0.0112360
        k(   81) = (   0.4861111   0.5277778   0.4861111), wk =   0.0112360
        k(   82) = (   0.4722222   0.5555556   0.4722222), wk =   0.0112360
        k(   83) = (   0.4583333   0.5833333   0.4583333), wk =   0.0112360
        k(   84) = (   0.4444444   0.6111111   0.4444444), wk =   0.0112360
        k(   85) = (   0.4305556   0.6388889   0.4305556), wk =   0.0112360
        k(   86) = (   0.4166667   0.6666667   0.4166667), wk =   0.0112360
        k(   87) = (   0.4027778   0.6944444   0.4027778), wk =   0.0112360
        k(   88) = (   0.3888889   0.7222222   0.3888889), wk =   0.0112360
        k(   89) = (   0.3750000   0.7500000   0.3750000), wk =   0.0112360

     Dense  grid:    54131 G-vectors     FFT dimensions: (  60,  36,  60)

     Smooth grid:    16021 G-vectors     FFT dimensions: (  40,  24,  40)

     Estimated max dynamical RAM per process >      11.25MB

     Estimated total allocated dynamical RAM >      56.25MB
     Generating pointlists ...
     new r_m :   0.1610 (alat units)  1.6269 (a.u.) for type    1
     new r_m :   0.1610 (alat units)  1.6269 (a.u.) for type    2

     Check: negative/imaginary core charge=   -0.000230    0.000000

     The potential is recalculated from file :
     ./espresso.save/charge-density.dat


     negative rho (up, down):  0.000E+00 2.254E-03
     Starting wfc are   68 randomized atomic wfcs
     Checking if some PAW data can be deallocated... 
       node    0, deallocated PAW data for type:  2
       node    1, deallocated PAW data for type:  2
       node    2, deallocated PAW data for type:  1
       node    3, deallocated PAW data for type:  1
       node    4, deallocated PAW data for type:  1

     Band Structure Calculation
     Davidson diagonalization with overlap

     Computing kpt #:     1
     total cpu time spent up to now is        4.9 secs

     Computing kpt #:     2
     total cpu time spent up to now is        6.8 secs

     Computing kpt #:     3
     total cpu time spent up to now is        9.1 secs

     Computing kpt #:     4
     total cpu time spent up to now is       11.0 secs

     Computing kpt #:     5
     total cpu time spent up to now is       13.1 secs

     Computing kpt #:     6
     total cpu time spent up to now is       14.8 secs

     Computing kpt #:     7
     total cpu time spent up to now is       16.5 secs

     Computing kpt #:     8
     total cpu time spent up to now is       18.2 secs

     Computing kpt #:     9
     total cpu time spent up to now is       19.8 secs

     Computing kpt #:    10
     total cpu time spent up to now is       21.4 secs

     Computing kpt #:    11
     total cpu time spent up to now is       23.1 secs

     Computing kpt #:    12
     total cpu time spent up to now is       24.8 secs

     Computing kpt #:    13
     total cpu time spent up to now is       26.5 secs

     Computing kpt #:    14
     total cpu time spent up to now is       28.3 secs

     Computing kpt #:    15
     total cpu time spent up to now is       29.9 secs

     Computing kpt #:    16
     total cpu time spent up to now is       31.5 secs

     Computing kpt #:    17
     total cpu time spent up to now is       33.1 secs

     Computing kpt #:    18
     total cpu time spent up to now is       34.7 secs

     Computing kpt #:    19
     total cpu time spent up to now is       36.3 secs

     Computing kpt #:    20
     total cpu time spent up to now is       37.9 secs

     Computing kpt #:    21
     total cpu time spent up to now is       39.5 secs

     Computing kpt #:    22
     total cpu time spent up to now is       41.1 secs

     Computing kpt #:    23
     total cpu time spent up to now is       42.8 secs

     Computing kpt #:    24
     total cpu time spent up to now is       44.6 secs

     Computing kpt #:    25
     total cpu time spent up to now is       46.5 secs

     Computing kpt #:    26
     total cpu time spent up to now is       48.2 secs

     Computing kpt #:    27
     total cpu time spent up to now is       49.8 secs

     Computing kpt #:    28
     total cpu time spent up to now is       51.4 secs

     Computing kpt #:    29
     total cpu time spent up to now is       53.1 secs

     Computing kpt #:    30
     total cpu time spent up to now is       54.8 secs

     Computing kpt #:    31
     total cpu time spent up to now is       56.6 secs

     Computing kpt #:    32
     total cpu time spent up to now is       58.3 secs

     Computing kpt #:    33
     total cpu time spent up to now is       59.8 secs

     Computing kpt #:    34
     total cpu time spent up to now is       61.4 secs

     Computing kpt #:    35
     total cpu time spent up to now is       63.1 secs

     Computing kpt #:    36
     total cpu time spent up to now is       64.7 secs

     Computing kpt #:    37
     total cpu time spent up to now is       66.4 secs

     Computing kpt #:    38
     total cpu time spent up to now is       68.6 secs

     Computing kpt #:    39
     total cpu time spent up to now is       70.6 secs

     Computing kpt #:    40
     total cpu time spent up to now is       72.3 secs

     Computing kpt #:    41
     total cpu time spent up to now is       74.0 secs

     Computing kpt #:    42
     total cpu time spent up to now is       76.1 secs

     Computing kpt #:    43
     total cpu time spent up to now is       77.9 secs

     Computing kpt #:    44
     total cpu time spent up to now is       79.6 secs

     Computing kpt #:    45
     total cpu time spent up to now is       81.9 secs

     Computing kpt #:    46
     total cpu time spent up to now is       84.1 secs

     Computing kpt #:    47
     total cpu time spent up to now is       86.4 secs

     Computing kpt #:    48
     total cpu time spent up to now is       88.3 secs

     Computing kpt #:    49
     total cpu time spent up to now is       90.1 secs

     Computing kpt #:    50
     total cpu time spent up to now is       91.7 secs

     Computing kpt #:    51
     total cpu time spent up to now is       93.4 secs

     Computing kpt #:    52
     total cpu time spent up to now is       95.1 secs

     Computing kpt #:    53
     total cpu time spent up to now is       97.0 secs

     Computing kpt #:    54
     total cpu time spent up to now is       98.8 secs

     Computing kpt #:    55
     total cpu time spent up to now is      100.6 secs

     Computing kpt #:    56
     total cpu time spent up to now is      102.5 secs

     Computing kpt #:    57
     total cpu time spent up to now is      104.4 secs

     Computing kpt #:    58
     total cpu time spent up to now is      106.4 secs

     Computing kpt #:    59
     total cpu time spent up to now is      108.3 secs

     Computing kpt #:    60
     total cpu time spent up to now is      110.2 secs

     Computing kpt #:    61
     total cpu time spent up to now is      112.0 secs

     Computing kpt #:    62
     total cpu time spent up to now is      113.8 secs

     Computing kpt #:    63
     total cpu time spent up to now is      115.6 secs

     Computing kpt #:    64
     total cpu time spent up to now is      117.2 secs

     Computing kpt #:    65
     total cpu time spent up to now is      118.8 secs

     Computing kpt #:    66
     total cpu time spent up to now is      120.4 secs

     Computing kpt #:    67
     total cpu time spent up to now is      122.1 secs

     Computing kpt #:    68
     total cpu time spent up to now is      123.9 secs

     Computing kpt #:    69
     total cpu time spent up to now is      125.6 secs

     Computing kpt #:    70
     total cpu time spent up to now is      127.3 secs

     Computing kpt #:    71
     total cpu time spent up to now is      128.8 secs

     Computing kpt #:    72
     total cpu time spent up to now is      130.4 secs

     Computing kpt #:    73
     total cpu time spent up to now is      132.1 secs

     Computing kpt #:    74
     total cpu time spent up to now is      133.7 secs

     Computing kpt #:    75
     total cpu time spent up to now is      135.5 secs

     Computing kpt #:    76
     total cpu time spent up to now is      137.3 secs

     Computing kpt #:    77
     total cpu time spent up to now is      139.2 secs

     Computing kpt #:    78
     total cpu time spent up to now is      141.0 secs

     Computing kpt #:    79
     total cpu time spent up to now is      142.8 secs

     Computing kpt #:    80
     total cpu time spent up to now is      144.4 secs

     Computing kpt #:    81
     total cpu time spent up to now is      146.3 secs

     Computing kpt #:    82
     total cpu time spent up to now is      148.0 secs

     Computing kpt #:    83
     total cpu time spent up to now is      149.8 secs

     Computing kpt #:    84
     total cpu time spent up to now is      151.5 secs

     Computing kpt #:    85
     total cpu time spent up to now is      153.2 secs

     Computing kpt #:    86
     total cpu time spent up to now is      154.9 secs

     Computing kpt #:    87
     total cpu time spent up to now is      156.5 secs

     Computing kpt #:    88
     total cpu time spent up to now is      158.1 secs

     Computing kpt #:    89
     total cpu time spent up to now is      159.9 secs

     Computing kpt #:    90
     total cpu time spent up to now is      161.7 secs

     Computing kpt #:    91
     total cpu time spent up to now is      164.2 secs

     Computing kpt #:    92
     total cpu time spent up to now is      166.0 secs

     Computing kpt #:    93
     total cpu time spent up to now is      167.7 secs

     Computing kpt #:    94
     total cpu time spent up to now is      169.8 secs

     Computing kpt #:    95
     total cpu time spent up to now is      171.5 secs

     Computing kpt #:    96
     total cpu time spent up to now is      173.1 secs

     Computing kpt #:    97
     total cpu time spent up to now is      174.7 secs

     Computing kpt #:    98
     total cpu time spent up to now is      176.3 secs

     Computing kpt #:    99
     total cpu time spent up to now is      177.8 secs

     Computing kpt #:   100
     total cpu time spent up to now is      179.2 secs

     Computing kpt #:   101
     total cpu time spent up to now is      180.7 secs

     Computing kpt #:   102
     total cpu time spent up to now is      182.2 secs

     Computing kpt #:   103
     total cpu time spent up to now is      183.6 secs

     Computing kpt #:   104
     total cpu time spent up to now is      185.1 secs

     Computing kpt #:   105
     total cpu time spent up to now is      186.7 secs

     Computing kpt #:   106
     total cpu time spent up to now is      188.2 secs

     Computing kpt #:   107
     total cpu time spent up to now is      189.8 secs

     Computing kpt #:   108
     total cpu time spent up to now is      191.5 secs

     Computing kpt #:   109
     total cpu time spent up to now is      193.1 secs

     Computing kpt #:   110
     total cpu time spent up to now is      194.8 secs

     Computing kpt #:   111
     total cpu time spent up to now is      196.5 secs

     Computing kpt #:   112
     total cpu time spent up to now is      198.2 secs

     Computing kpt #:   113
     total cpu time spent up to now is      200.0 secs

     Computing kpt #:   114
     total cpu time spent up to now is      201.8 secs

     Computing kpt #:   115
     total cpu time spent up to now is      203.5 secs

     Computing kpt #:   116
     total cpu time spent up to now is      205.3 secs

     Computing kpt #:   117
     total cpu time spent up to now is      207.2 secs

     Computing kpt #:   118
     total cpu time spent up to now is      208.9 secs

     Computing kpt #:   119
     total cpu time spent up to now is      210.6 secs

     Computing kpt #:   120
     total cpu time spent up to now is      212.3 secs

     Computing kpt #:   121
     total cpu time spent up to now is      213.9 secs

     Computing kpt #:   122
     total cpu time spent up to now is      215.5 secs

     Computing kpt #:   123
     total cpu time spent up to now is      217.1 secs

     Computing kpt #:   124
     total cpu time spent up to now is      218.7 secs

     Computing kpt #:   125
     total cpu time spent up to now is      220.4 secs

     Computing kpt #:   126
     total cpu time spent up to now is      222.4 secs

     Computing kpt #:   127
     total cpu time spent up to now is      224.6 secs

     Computing kpt #:   128
     total cpu time spent up to now is      226.8 secs

     Computing kpt #:   129
     total cpu time spent up to now is      228.7 secs

     Computing kpt #:   130
     total cpu time spent up to now is      230.6 secs

     Computing kpt #:   131
     total cpu time spent up to now is      233.5 secs

     Computing kpt #:   132
     total cpu time spent up to now is      235.4 secs

     Computing kpt #:   133
     total cpu time spent up to now is      237.2 secs

     Computing kpt #:   134
     total cpu time spent up to now is      239.1 secs

     Computing kpt #:   135
     total cpu time spent up to now is      240.9 secs

     Computing kpt #:   136
     total cpu time spent up to now is      242.8 secs

     Computing kpt #:   137
     total cpu time spent up to now is      244.6 secs

     Computing kpt #:   138
     total cpu time spent up to now is      246.6 secs

     Computing kpt #:   139
     total cpu time spent up to now is      248.5 secs

     Computing kpt #:   140
     total cpu time spent up to now is      250.3 secs

     Computing kpt #:   141
     total cpu time spent up to now is      252.0 secs

     Computing kpt #:   142
     total cpu time spent up to now is      253.9 secs

     Computing kpt #:   143
     total cpu time spent up to now is      255.6 secs

     Computing kpt #:   144
     total cpu time spent up to now is      257.5 secs

     Computing kpt #:   145
     total cpu time spent up to now is      259.3 secs

     Computing kpt #:   146
     total cpu time spent up to now is      261.1 secs

     Computing kpt #:   147
     total cpu time spent up to now is      263.0 secs

     Computing kpt #:   148
     total cpu time spent up to now is      265.0 secs

     Computing kpt #:   149
     total cpu time spent up to now is      266.8 secs

     Computing kpt #:   150
     total cpu time spent up to now is      268.7 secs

     Computing kpt #:   151
     total cpu time spent up to now is      270.4 secs

     Computing kpt #:   152
     total cpu time spent up to now is      272.2 secs

     Computing kpt #:   153
     total cpu time spent up to now is      273.9 secs

     Computing kpt #:   154
     total cpu time spent up to now is      275.8 secs

     Computing kpt #:   155
     total cpu time spent up to now is      277.5 secs

     Computing kpt #:   156
     total cpu time spent up to now is      279.3 secs

     Computing kpt #:   157
     total cpu time spent up to now is      280.9 secs

     Computing kpt #:   158
     total cpu time spent up to now is      282.6 secs

     Computing kpt #:   159
     total cpu time spent up to now is      284.4 secs

     Computing kpt #:   160
     total cpu time spent up to now is      286.1 secs

     Computing kpt #:   161
     total cpu time spent up to now is      287.8 secs

     Computing kpt #:   162
     total cpu time spent up to now is      289.6 secs

     Computing kpt #:   163
     total cpu time spent up to now is      291.5 secs

     Computing kpt #:   164
     total cpu time spent up to now is      293.3 secs

     Computing kpt #:   165
     total cpu time spent up to now is      295.1 secs

     Computing kpt #:   166
     total cpu time spent up to now is      296.8 secs

     Computing kpt #:   167
     total cpu time spent up to now is      298.6 secs

     Computing kpt #:   168
     total cpu time spent up to now is      300.3 secs

     Computing kpt #:   169
     total cpu time spent up to now is      302.1 secs

     Computing kpt #:   170
     total cpu time spent up to now is      303.9 secs

     Computing kpt #:   171
     total cpu time spent up to now is      305.7 secs

     Computing kpt #:   172
     total cpu time spent up to now is      307.5 secs

     Computing kpt #:   173
     total cpu time spent up to now is      309.4 secs

     Computing kpt #:   174
     total cpu time spent up to now is      311.1 secs

     Computing kpt #:   175
     total cpu time spent up to now is      312.9 secs

     Computing kpt #:   176
     total cpu time spent up to now is      314.8 secs

     Computing kpt #:   177
     total cpu time spent up to now is      316.7 secs

     Computing kpt #:   178
     total cpu time spent up to now is      318.7 secs

     ethr =  1.14E-09,  avg # of iterations = 13.3

     total cpu time spent up to now is      318.7 secs

     End of band structure calculation

 ------ SPIN UP ------------


          k = 0.0000 0.0000 0.0000 (  2005 PWs)   bands (ev):

   -76.4016 -76.3964 -76.3776 -76.3729 -42.6545 -42.6162 -42.5920 -42.5790
   -42.5757 -42.5387 -42.5376 -42.5220 -42.5073 -42.4802 -42.4752 -42.4726
    -7.1266  -6.0497  -5.9507  -5.9399   4.6206   4.6533   6.2943   6.5177
     6.5244   6.5306   6.5447   8.2187   8.3007   8.4004   8.9878   9.0529
     9.1515   9.2636   9.2638   9.2870   9.3004   9.4369   9.6524   9.7712
     9.7918   9.8311   9.8336  10.0048  10.0170  10.0598  10.3871  10.4212
    12.3245  12.4105  12.4120  12.4913  13.0166  17.5578  17.5932  18.1110
    20.8930  21.0518  21.8015  23.1536  26.1123  26.1271  26.6949  26.9003
    27.8584  27.9295  28.2814  28.9630

     occupation numbers 
     1.0000   1.0000   1.0000   1.0000   1.0000   1.0000   1.0000   1.0000
     1.0000   1.0000   1.0000   1.0000   1.0000   1.0000   1.0000   1.0000
     1.0000   1.0000   1.0000   1.0000   1.0000   1.0000   1.0000   1.0000
     1.0000   1.0000   1.0000   1.0000   1.0000   1.0000   1.0000   1.0000
     1.0000   1.0000   1.0000   1.0000   1.0000   1.0000   1.0000   1.0000
     1.0000   1.0000   1.0000   1.0000   1.0000   1.0000   1.0000   1.0000
     1.0005   1.0069   1.0072   1.0390   0.0008   0.0000   0.0000   0.0000
     0.0000   0.0000   0.0000   0.0000   0.0000   0.0000   0.0000   0.0000
     0.0000   0.0000   0.0000   0.0000

          k = 0.0333 0.0564 0.0114 (  2012 PWs)   bands (ev):

   -76.4018 -76.3964 -76.3781 -76.3729 -42.6559 -42.6135 -42.5987 -42.5825
   -42.5756 -42.5457 -42.5433 -42.5174 -42.5062 -42.4989 -42.4831 -42.4702
    -7.1173  -6.0487  -5.9519  -5.9414   4.6343   4.6765   6.2960   6.5193
     6.5252   6.5391   6.5477   8.0349   8.2961   8.5040   8.9035   8.9492
     9.0222   9.0934   9.2084   9.3692   9.4693   9.6703   9.7116   9.7690
     9.7899   9.8291   9.8323  10.0087  10.0170  10.0795  10.3818  10.4160
    12.3252  12.3720  12.3768  12.4765  13.0688  17.6068  17.6395  18.1606
    20.8942  21.0377  21.7991  23.1200  25.9063  25.9627  26.6518  26.8890
    27.6267  27.9336  28.3112  29.1226

     occupation numbers 
     1.0000   1.0000   1.0000   1.0000   1.0000   1.0000   1.0000   1.0000
     1.0000   1.0000   1.0000   1.0000   1.0000   1.0000   1.0000   1.0000
     1.0000   1.0000   1.0000   1.0000   1.0000   1.0000   1.0000   1.0000
     1.0000   1.0000   1.0000   1.0000   1.0000   1.0000   1.0000   1.0000
     1.0000   1.0000   1.0000   1.0000   1.0000   1.0000   1.0000   1.0000
     1.0000   1.0000   1.0000   1.0000   1.0000   1.0000   1.0000   1.0000
     1.0005   1.0023   1.0026   1.0303   0.0001   0.0000   0.0000   0.0000
     0.0000   0.0000   0.0000   0.0000   0.0000   0.0000   0.0000   0.0000
     0.0000   0.0000   0.0000   0.0000

          k = 0.0667 0.1128 0.0228 (  2015 PWs)   bands (ev):

   -76.4017 -76.3967 -76.3781 -76.3731 -42.6561 -42.6169 -42.5994 -42.5821
   -42.5755 -42.5482 -42.5476 -42.5198 -42.5034 -42.5000 -42.4827 -42.4771
    -7.0896  -6.0464  -5.9578  -5.9411   4.6907   4.7403   6.2896   6.5299
     6.5310   6.5594   6.5704   7.7976   8.1253   8.5403   8.6954   8.7653
     8.8716   9.0635   9.2121   9.4719   9.6524   9.7386   9.7757   9.8253
     9.8276   9.8504   9.9623  10.0185  10.0206  10.1509  10.3689  10.4090
    12.2257  12.2598  12.3740  12.4448  13.2412  17.7362  17.7822  18.2750
    20.9036  21.0117  21.8039  23.0246  25.5533  25.6926  26.6493  26.9383
    27.0983  27.8771  28.3710  29.1048

     occupation numbers 
     1.0000   1.0000   1.0000   1.0000   1.0000   1.0000   1.0000   1.0000
     1.0000   1.0000   1.0000   1.0000   1.0000   1.0000   1.0000   1.0000
     1.0000   1.0000   1.0000   1.0000   1.0000   1.0000   1.0000   1.0000
     1.0000   1.0000   1.0000   1.0000   1.0000   1.0000   1.0000   1.0000
     1.0000   1.0000   1.0000   1.0000   1.0000   1.0000   1.0000   1.0000
     1.0000   1.0000   1.0000   1.0000   1.0000   1.0000   1.0000   1.0000
     1.0000   1.0000   1.0024   1.0159   0.0000   0.0000   0.0000   0.0000
     0.0000   0.0000   0.0000   0.0000   0.0000   0.0000   0.0000   0.0000
     0.0000   0.0000   0.0000   0.0000

          k = 0.1000 0.1693 0.0341 (  2012 PWs)   bands (ev):

   -76.4011 -76.3969 -76.3777 -76.3733 -42.6372 -42.6203 -42.5974 -42.5785
   -42.5770 -42.5516 -42.5413 -42.5252 -42.5022 -42.4948 -42.4838 -42.4810
    -7.0431  -6.0455  -5.9651  -5.9406   4.7807   4.8388   6.2823   6.5403
     6.5469   6.5804   6.6200   7.5475   7.9239   8.1335   8.5793   8.6895
     8.8794   9.0612   9.2389   9.5650   9.7050   9.7576   9.8014   9.8224
     9.8619   9.9353  10.0331  10.0460  10.2057  10.2784  10.3724  10.4085
    12.0359  12.0801  12.3699  12.3991  13.5471  17.8736  18.0558  18.4615
    20.9398  20.9812  21.8184  22.8792  25.0584  25.3136  26.4521  26.8462
    27.0216  27.6858  28.5789  28.9889

     occupation numbers 
     1.0000   1.0000   1.0000   1.0000   1.0000   1.0000   1.0000   1.0000
     1.0000   1.0000   1.0000   1.0000   1.0000   1.0000   1.0000   1.0000
     1.0000   1.0000   1.0000   1.0000   1.0000   1.0000   1.0000   1.0000
     1.0000   1.0000   1.0000   1.0000   1.0000   1.0000   1.0000   1.0000
     1.0000   1.0000   1.0000   1.0000   1.0000   1.0000   1.0000   1.0000
     1.0000   1.0000   1.0000   1.0000   1.0000   1.0000   1.0000   1.0000
     1.0000   1.0000   1.0021   1.0050   0.0000   0.0000   0.0000   0.0000
     0.0000   0.0000   0.0000   0.0000   0.0000   0.0000   0.0000   0.0000
     0.0000   0.0000   0.0000   0.0000

          k = 0.1333 0.2257 0.0455 (  2009 PWs)   bands (ev):

   -76.4004 -76.3971 -76.3774 -76.3734 -42.6320 -42.6237 -42.5865 -42.5781
   -42.5663 -42.5545 -42.5345 -42.5298 -42.5015 -42.4910 -42.4874 -42.4812
    -6.9776  -6.0493  -5.9689  -5.9403   4.9000   4.9689   6.2717   6.5553
     6.5654   6.6074   6.6824   7.2886   7.7289   7.7309   8.3860   8.5054
     9.0442   9.0622   9.2787   9.6457   9.6566   9.7384   9.8108   9.8208
     9.9497  10.0270  10.0535  10.1086  10.3025  10.3263  10.5048  10.5284
    11.7970  11.8487  12.3380  12.3412  13.9567  18.0300  18.3887  18.6998
    20.9282  21.0020  21.8287  22.7007  24.4801  24.9173  25.9163  26.9464
    27.1086  27.4678  28.8302  28.8888

     occupation numbers 
     1.0000   1.0000   1.0000   1.0000   1.0000   1.0000   1.0000   1.0000
     1.0000   1.0000   1.0000   1.0000   1.0000   1.0000   1.0000   1.0000
     1.0000   1.0000   1.0000   1.0000   1.0000   1.0000   1.0000   1.0000
     1.0000   1.0000   1.0000   1.0000   1.0000   1.0000   1.0000   1.0000
     1.0000   1.0000   1.0000   1.0000   1.0000   1.0000   1.0000   1.0000
     1.0000   1.0000   1.0000   1.0000   1.0000   1.0000   1.0000   1.0000
     1.0000   1.0000   1.0007   1.0008   0.0000   0.0000   0.0000   0.0000
     0.0000   0.0000   0.0000   0.0000   0.0000   0.0000   0.0000   0.0000
     0.0000   0.0000   0.0000   0.0000

          k = 0.1667 0.2821 0.0569 (  2011 PWs)   bands (ev):

   -76.3998 -76.3974 -76.3772 -76.3737 -42.6291 -42.6253 -42.5862 -42.5826
   -42.5635 -42.5589 -42.5336 -42.5326 -42.5017 -42.4947 -42.4864 -42.4831
    -6.8985  -6.0597  -5.9664  -5.9400   5.0443   5.1177   6.2504   6.5774
     6.5805   6.6370   6.7508   7.0435   7.3480   7.5576   8.1923   8.3284
     9.0653   9.1876   9.3286   9.6012   9.6901   9.7407   9.8161   9.8196
     9.9362  10.0742  10.1893  10.1954  10.2855  10.3249  10.6961  10.7335
    11.5327  11.5869  12.2706  12.2862  14.4203  18.1968  18.7611  18.9686
    20.8657  21.0973  21.8186  22.5181  23.8728  24.4869  25.3870  26.9991
    27.1035  27.3948  28.6593  28.7321

     occupation numbers 
     1.0000   1.0000   1.0000   1.0000   1.0000   1.0000   1.0000   1.0000
     1.0000   1.0000   1.0000   1.0000   1.0000   1.0000   1.0000   1.0000
     1.0000   1.0000   1.0000   1.0000   1.0000   1.0000   1.0000   1.0000
     1.0000   1.0000   1.0000   1.0000   1.0000   1.0000   1.0000   1.0000
     1.0000   1.0000   1.0000   1.0000   1.0000   1.0000   1.0000   1.0000
     1.0000   1.0000   1.0000   1.0000   1.0000   1.0000   1.0000   1.0000
     1.0000   1.0000   1.0001   1.0001   0.0000   0.0000   0.0000   0.0000
     0.0000   0.0000   0.0000   0.0000   0.0000   0.0000   0.0000   0.0000
     0.0000   0.0000   0.0000   0.0000

          k = 0.2000 0.3385 0.0683 (  2012 PWs)   bands (ev):

   -76.3995 -76.3975 -76.3771 -76.3737 -42.6282 -42.6233 -42.5870 -42.5866
   -42.5622 -42.5579 -42.5345 -42.5327 -42.5007 -42.4933 -42.4919 -42.4874
    -6.8105  -6.0735  -5.9595  -5.9385   5.2008   5.2699   6.2149   6.5868
     6.6080   6.6573   6.8105   6.8524   7.0027   7.4178   8.0014   8.1617
     9.0705   9.3112   9.3859   9.5496   9.6737   9.7754   9.8167   9.8470
     9.9115  10.0953  10.2651  10.2855  10.3052  10.3602  10.8645  10.9253
    11.2707  11.3135  12.1934  12.2218  14.9076  18.3397  19.1764  19.2642
    20.8140  21.2135  21.7766  22.3925  23.2919  24.0902  24.8777  26.7790
    27.2900  27.5076  28.2285  28.4869

     occupation numbers 
     1.0000   1.0000   1.0000   1.0000   1.0000   1.0000   1.0000   1.0000
     1.0000   1.0000   1.0000   1.0000   1.0000   1.0000   1.0000   1.0000
     1.0000   1.0000   1.0000   1.0000   1.0000   1.0000   1.0000   1.0000
     1.0000   1.0000   1.0000   1.0000   1.0000   1.0000   1.0000   1.0000
     1.0000   1.0000   1.0000   1.0000   1.0000   1.0000   1.0000   1.0000
     1.0000   1.0000   1.0000   1.0000   1.0000   1.0000   1.0000   1.0000
     1.0000   1.0000   1.0000   1.0000   0.0000   0.0000   0.0000   0.0000
     0.0000   0.0000   0.0000   0.0000   0.0000   0.0000   0.0000   0.0000
     0.0000   0.0000   0.0000   0.0000

          k = 0.2333 0.3949 0.0797 (  2013 PWs)   bands (ev):

   -76.3992 -76.3975 -76.3770 -76.3737 -42.6253 -42.6223 -42.5913 -42.5868
   -42.5641 -42.5582 -42.5331 -42.5297 -42.5026 -42.4968 -42.4934 -42.4891
    -6.7131  -6.0875  -5.9519  -5.9377   5.3672   5.4120   6.1415   6.5619
     6.5874   6.6399   6.7317   6.8092   6.8606   7.3280   7.8158   8.0062
     9.0784   9.4098   9.4467   9.5184   9.6512   9.7889   9.8078   9.8805
     9.9080  10.1148  10.2616  10.3016  10.3784  10.5034  10.9130  10.9823
    11.1176  11.1565  12.1089  12.1478  15.4081  18.4458  19.5665  19.5806
    20.7599  21.2415  21.7854  22.3646  22.7362  23.7033  24.4024  26.5731
    27.3372  27.5861  27.6778  28.3154

     occupation numbers 
     1.0000   1.0000   1.0000   1.0000   1.0000   1.0000   1.0000   1.0000
     1.0000   1.0000   1.0000   1.0000   1.0000   1.0000   1.0000   1.0000
     1.0000   1.0000   1.0000   1.0000   1.0000   1.0000   1.0000   1.0000
     1.0000   1.0000   1.0000   1.0000   1.0000   1.0000   1.0000   1.0000
     1.0000   1.0000   1.0000   1.0000   1.0000   1.0000   1.0000   1.0000
     1.0000   1.0000   1.0000   1.0000   1.0000   1.0000   1.0000   1.0000
     1.0000   1.0000   1.0000   1.0000   0.0000   0.0000   0.0000   0.0000
     0.0000   0.0000   0.0000   0.0000   0.0000   0.0000   0.0000   0.0000
     0.0000   0.0000   0.0000   0.0000

          k = 0.2667 0.4513 0.0911 (  2013 PWs)   bands (ev):

   -76.3989 -76.3976 -76.3768 -76.3737 -42.6235 -42.6194 -42.5958 -42.5835
   -42.5630 -42.5618 -42.5319 -42.5299 -42.5038 -42.5002 -42.4970 -42.4884
    -6.6108  -6.1001  -5.9466  -5.9351   5.5286   5.5297   6.0251   6.3113
     6.5755   6.6387   6.7367   6.8140   6.8701   7.2887   7.6408   7.8648
     9.0897   9.4589   9.5031   9.5421   9.6353   9.7838   9.7977   9.8492
     9.9735  10.1312  10.2675  10.3090  10.4678  10.6347  10.7379  10.7635
    11.1921  11.2724  12.0232  12.0717  15.9191  18.5055  19.8386  19.9681
    20.7527  21.0535  21.9603  22.2631  22.3861  23.3721  23.9465  26.4415
    26.7318  27.6351  27.7048  28.1462

     occupation numbers 
     1.0000   1.0000   1.0000   1.0000   1.0000   1.0000   1.0000   1.0000
     1.0000   1.0000   1.0000   1.0000   1.0000   1.0000   1.0000   1.0000
     1.0000   1.0000   1.0000   1.0000   1.0000   1.0000   1.0000   1.0000
     1.0000   1.0000   1.0000   1.0000   1.0000   1.0000   1.0000   1.0000
     1.0000   1.0000   1.0000   1.0000   1.0000   1.0000   1.0000   1.0000
     1.0000   1.0000   1.0000   1.0000   1.0000   1.0000   1.0000   1.0000
     1.0000   1.0000   1.0000   1.0000   0.0000   0.0000   0.0000   0.0000
     0.0000   0.0000   0.0000   0.0000   0.0000   0.0000   0.0000   0.0000
     0.0000   0.0000   0.0000   0.0000

          k = 0.3000 0.5078 0.1024 (  2010 PWs)   bands (ev):

   -76.3985 -76.3976 -76.3766 -76.3736 -42.6238 -42.6143 -42.5919 -42.5819
   -42.5653 -42.5619 -42.5315 -42.5280 -42.5050 -42.5019 -42.4925 -42.4873
    -6.5074  -6.1082  -5.9451  -5.9336   5.6168   5.6751   5.9057   6.0727
     6.5514   6.6295   6.7884   6.8528   6.8657   7.2871   7.4743   7.7356
     9.1052   9.4751   9.5333   9.5982   9.6428   9.7434   9.8082   9.8213
    10.0341  10.1450  10.2906  10.3316  10.4760  10.5669  10.6511  10.7567
    11.2712  11.3723  11.9428  11.9935  16.4185  18.5396  20.0650  20.2396
    20.7530  20.7988  21.8716  22.2278  22.4037  23.1331  23.5197  26.0115
    26.3942  27.6590  27.8223  28.0125

     occupation numbers 
     1.0000   1.0000   1.0000   1.0000   1.0000   1.0000   1.0000   1.0000
     1.0000   1.0000   1.0000   1.0000   1.0000   1.0000   1.0000   1.0000
     1.0000   1.0000   1.0000   1.0000   1.0000   1.0000   1.0000   1.0000
     1.0000   1.0000   1.0000   1.0000   1.0000   1.0000   1.0000   1.0000
     1.0000   1.0000   1.0000   1.0000   1.0000   1.0000   1.0000   1.0000
     1.0000   1.0000   1.0000   1.0000   1.0000   1.0000   1.0000   1.0000
     1.0000   1.0000   1.0000   1.0000   0.0000   0.0000   0.0000   0.0000
     0.0000   0.0000   0.0000   0.0000   0.0000   0.0000   0.0000   0.0000
     0.0000   0.0000   0.0000   0.0000

          k = 0.3333 0.5642 0.1138 (  2008 PWs)   bands (ev):

   -76.3984 -76.3974 -76.3765 -76.3734 -42.6204 -42.6172 -42.5845 -42.5837
   -42.5690 -42.5628 -42.5291 -42.5271 -42.5105 -42.4993 -42.4882 -42.4856
    -6.4076  -6.1110  -5.9466  -5.9350   5.6609   5.7785   5.8124   5.8807
     6.5203   6.6272   6.8280   6.8869   6.8955   7.3010   7.3203   7.6228
     9.1251   9.4742   9.5220   9.6215   9.6843   9.7212   9.8007   9.8215
    10.0853  10.1555  10.3244  10.3400  10.3893  10.4872  10.7193  10.8655
    11.3146  11.4314  11.8696  11.9138  16.8946  18.5729  20.1815  20.3090
    20.5099  20.8240  21.6851  22.3351  22.5223  23.0017  23.1166  25.3584
    26.5205  27.6520  27.8847  27.8972

     occupation numbers 
     1.0000   1.0000   1.0000   1.0000   1.0000   1.0000   1.0000   1.0000
     1.0000   1.0000   1.0000   1.0000   1.0000   1.0000   1.0000   1.0000
     1.0000   1.0000   1.0000   1.0000   1.0000   1.0000   1.0000   1.0000
     1.0000   1.0000   1.0000   1.0000   1.0000   1.0000   1.0000   1.0000
     1.0000   1.0000   1.0000   1.0000   1.0000   1.0000   1.0000   1.0000
     1.0000   1.0000   1.0000   1.0000   1.0000   1.0000   1.0000   1.0000
     1.0000   1.0000   1.0000   1.0000   0.0000   0.0000   0.0000   0.0000
     0.0000   0.0000   0.0000   0.0000   0.0000   0.0000   0.0000   0.0000
     0.0000   0.0000   0.0000   0.0000

          k = 0.3667 0.6206 0.1252 (  2009 PWs)   bands (ev):

   -76.3982 -76.3974 -76.3765 -76.3734 -42.6233 -42.6183 -42.5850 -42.5847
   -42.5694 -42.5669 -42.5327 -42.5215 -42.5086 -42.5024 -42.4881 -42.4848
    -6.3146  -6.1094  -5.9529  -5.9389   5.6570   5.7214   5.7635   5.8570
     6.4991   6.6166   6.8703   6.9112   6.9362   7.1858   7.3145   7.5212
     9.1500   9.4212   9.4908   9.5882   9.7342   9.7429   9.8101   9.8373
    10.1240  10.1608  10.2831  10.2956  10.4591  10.5421  10.8130  10.9632
    11.3227  11.4390  11.8057  11.8310  17.3401  18.5840  19.9638  20.1975
    20.5476  20.7627  21.8227  22.1977  22.7379  22.7442  23.0176  24.7845
    26.7280  27.6087  27.7920  27.8993

     occupation numbers 
     1.0000   1.0000   1.0000   1.0000   1.0000   1.0000   1.0000   1.0000
     1.0000   1.0000   1.0000   1.0000   1.0000   1.0000   1.0000   1.0000
     1.0000   1.0000   1.0000   1.0000   1.0000   1.0000   1.0000   1.0000
     1.0000   1.0000   1.0000   1.0000   1.0000   1.0000   1.0000   1.0000
     1.0000   1.0000   1.0000   1.0000   1.0000   1.0000   1.0000   1.0000
     1.0000   1.0000   1.0000   1.0000   1.0000   1.0000   1.0000   1.0000
     1.0000   1.0000   1.0000   1.0000   0.0000   0.0000   0.0000   0.0000
     0.0000   0.0000   0.0000   0.0000   0.0000   0.0000   0.0000   0.0000
     0.0000   0.0000   0.0000   0.0000

          k = 0.4000 0.6770 0.1366 (  2007 PWs)   bands (ev):

   -76.3980 -76.3973 -76.3763 -76.3732 -42.6216 -42.6157 -42.5873 -42.5824
   -42.5688 -42.5635 -42.5293 -42.5226 -42.5055 -42.5023 -42.4897 -42.4849
    -6.2318  -6.1033  -5.9614  -5.9463   5.6271   5.6283   5.7565   5.8664
     6.5070   6.6075   6.8936   6.9376   6.9674   7.0745   7.3183   7.4340
     9.1794   9.3432   9.4515   9.5218   9.7779   9.7797   9.8392   9.8539
    10.1473  10.1634  10.2596  10.2646  10.5983  10.6549  10.9104  11.0558
    11.2967  11.4028  11.7401  11.7428  17.7468  18.6048  19.6627  19.9512
    20.6810  20.7481  22.0232  22.0582  22.4378  22.8243  23.1410  24.3091
    27.0172  27.6236  27.7139  27.9128

     occupation numbers 
     1.0000   1.0000   1.0000   1.0000   1.0000   1.0000   1.0000   1.0000
     1.0000   1.0000   1.0000   1.0000   1.0000   1.0000   1.0000   1.0000
     1.0000   1.0000   1.0000   1.0000   1.0000   1.0000   1.0000   1.0000
     1.0000   1.0000   1.0000   1.0000   1.0000   1.0000   1.0000   1.0000
     1.0000   1.0000   1.0000   1.0000   1.0000   1.0000   1.0000   1.0000
     1.0000   1.0000   1.0000   1.0000   1.0000   1.0000   1.0000   1.0000
     1.0000   1.0000   1.0000   1.0000   0.0000   0.0000   0.0000   0.0000
     0.0000   0.0000   0.0000   0.0000   0.0000   0.0000   0.0000   0.0000
     0.0000   0.0000   0.0000   0.0000

          k = 0.4333 0.7334 0.1480 (  2004 PWs)   bands (ev):

   -76.3978 -76.3970 -76.3761 -76.3730 -42.6188 -42.6119 -42.5897 -42.5766
   -42.5668 -42.5657 -42.5266 -42.5195 -42.5054 -42.5010 -42.4925 -42.4812
    -6.1606  -6.0936  -5.9730  -5.9598   5.5793   5.6010   5.7558   5.8278
     6.5397   6.6033   6.8655   6.9265   7.0025   7.0464   7.3182   7.3631
     9.2128   9.2866   9.4088   9.4459   9.8111   9.8118   9.8644   9.8689
    10.1588  10.1659  10.2545  10.2556  10.7683  10.7863  11.0090  11.1487
    11.2466  11.3449  11.6420  11.6572  18.1433  18.6562  19.3828  19.6193
    20.7818  20.7827  21.8879  22.0092  22.4953  22.8594  23.2842  23.8896
    27.3195  27.6998  27.7582  27.8799

     occupation numbers 
     1.0000   1.0000   1.0000   1.0000   1.0000   1.0000   1.0000   1.0000
     1.0000   1.0000   1.0000   1.0000   1.0000   1.0000   1.0000   1.0000
     1.0000   1.0000   1.0000   1.0000   1.0000   1.0000   1.0000   1.0000
     1.0000   1.0000   1.0000   1.0000   1.0000   1.0000   1.0000   1.0000
     1.0000   1.0000   1.0000   1.0000   1.0000   1.0000   1.0000   1.0000
     1.0000   1.0000   1.0000   1.0000   1.0000   1.0000   1.0000   1.0000
     1.0000   1.0000   1.0000   1.0000   0.0000   0.0000   0.0000   0.0000
     0.0000   0.0000   0.0000   0.0000   0.0000   0.0000   0.0000   0.0000
     0.0000   0.0000   0.0000   0.0000

          k = 0.4667 0.7898 0.1594 (  2009 PWs)   bands (ev):

   -76.3978 -76.3972 -76.3762 -76.3731 -42.6146 -42.6110 -42.5900 -42.5830
   -42.5693 -42.5686 -42.5260 -42.5242 -42.5077 -42.5050 -42.4949 -42.4875
    -6.1065  -6.0858  -5.9835  -5.9771   5.5655   5.5827   5.7529   5.7774
     6.5846   6.6083   6.8290   6.8488   7.0582   7.0717   7.3013   7.3096
     9.2467   9.2650   9.3686   9.3789   9.8318   9.8321   9.8786   9.8795
    10.1655  10.1677  10.2546  10.2553  10.9106  10.9136  11.1029  11.1793
    11.2403  11.2947  11.5389  11.5486  18.5098  18.7213  19.1416  19.2856
    20.8452  20.8555  21.7808  21.8169  22.7419  22.8748  23.3643  23.5451
    27.5554  27.7170  27.8233  27.8318

     occupation numbers 
     1.0000   1.0000   1.0000   1.0000   1.0000   1.0000   1.0000   1.0000
     1.0000   1.0000   1.0000   1.0000   1.0000   1.0000   1.0000   1.0000
     1.0000   1.0000   1.0000   1.0000   1.0000   1.0000   1.0000   1.0000
     1.0000   1.0000   1.0000   1.0000   1.0000   1.0000   1.0000   1.0000
     1.0000   1.0000   1.0000   1.0000   1.0000   1.0000   1.0000   1.0000
     1.0000   1.0000   1.0000   1.0000   1.0000   1.0000   1.0000   1.0000
     1.0000   1.0000   1.0000   1.0000   0.0000   0.0000   0.0000   0.0000
     0.0000   0.0000   0.0000   0.0000   0.0000   0.0000   0.0000   0.0000
     0.0000   0.0000   0.0000   0.0000

          k = 0.5000 0.8463 0.1707 (  2004 PWs)   bands (ev):

   -76.3976 -76.3971 -76.3760 -76.3730 -42.6112 -42.6083 -42.5838 -42.5834
   -42.5678 -42.5673 -42.5200 -42.5195 -42.5086 -42.5058 -42.4908 -42.4880
    -6.0826  -6.0816  -5.9879  -5.9870   5.5745   5.5746   5.7502   5.7505
     6.6123   6.6128   6.8135   6.8140   7.0833   7.0842   7.2879   7.2882
     9.2659   9.2661   9.3469   9.3473   9.8389   9.8392   9.8829   9.8836
    10.1683  10.1683  10.2552  10.2560  10.9776  10.9785  11.1363  11.1368
    11.2948  11.2950  11.4754  11.4772  18.7831  18.7835  19.0408  19.0410
    20.8852  20.8853  21.7456  21.7460  22.8842  22.8844  23.3942  23.3942
    27.7489  27.7492  27.8000  27.8002

     occupation numbers 
     1.0000   1.0000   1.0000   1.0000   1.0000   1.0000   1.0000   1.0000
     1.0000   1.0000   1.0000   1.0000   1.0000   1.0000   1.0000   1.0000
     1.0000   1.0000   1.0000   1.0000   1.0000   1.0000   1.0000   1.0000
     1.0000   1.0000   1.0000   1.0000   1.0000   1.0000   1.0000   1.0000
     1.0000   1.0000   1.0000   1.0000   1.0000   1.0000   1.0000   1.0000
     1.0000   1.0000   1.0000   1.0000   1.0000   1.0000   1.0000   1.0000
     1.0000   1.0000   1.0000   1.0000   0.0000   0.0000   0.0000   0.0000
     0.0000   0.0000   0.0000   0.0000   0.0000   0.0000   0.0000   0.0000
     0.0000   0.0000   0.0000   0.0000

          k = 0.5000 0.9067 0.2087 (  2007 PWs)   bands (ev):

   -76.3977 -76.3972 -76.3761 -76.3731 -42.6127 -42.6090 -42.5869 -42.5864
   -42.5695 -42.5661 -42.5242 -42.5194 -42.5092 -42.5057 -42.4923 -42.4895
    -6.0982  -6.0953  -5.9824  -5.9782   5.5144   5.5326   5.7701   5.8390
     6.5935   6.6024   6.8166   6.8779   7.0290   7.0842   7.2885   7.3762
     9.1970   9.2702   9.3539   9.4235   9.8292   9.8310   9.8778   9.8842
    10.1642  10.1673  10.2551  10.2577  10.8726  10.8947  11.1276  11.1518
    11.2165  11.2853  11.5701  11.6174  18.5781  18.6035  19.1930  19.2156
    20.7667  20.9156  21.7699  21.8682  22.7038  22.9012  23.3896  23.6053
    27.6186  27.6999  27.7841  27.8979

     occupation numbers 
     1.0000   1.0000   1.0000   1.0000   1.0000   1.0000   1.0000   1.0000
     1.0000   1.0000   1.0000   1.0000   1.0000   1.0000   1.0000   1.0000
     1.0000   1.0000   1.0000   1.0000   1.0000   1.0000   1.0000   1.0000
     1.0000   1.0000   1.0000   1.0000   1.0000   1.0000   1.0000   1.0000
     1.0000   1.0000   1.0000   1.0000   1.0000   1.0000   1.0000   1.0000
     1.0000   1.0000   1.0000   1.0000   1.0000   1.0000   1.0000   1.0000
     1.0000   1.0000   1.0000   1.0000   0.0000   0.0000   0.0000   0.0000
     0.0000   0.0000   0.0000   0.0000   0.0000   0.0000   0.0000   0.0000
     0.0000   0.0000   0.0000   0.0000

          k = 0.5000 0.9671 0.2466 (  2001 PWs)   bands (ev):

   -76.3976 -76.3971 -76.3760 -76.3730 -42.6154 -42.6088 -42.5857 -42.5829
   -42.5631 -42.5604 -42.5229 -42.5215 -42.5043 -42.5004 -42.4872 -42.4844
    -6.1328  -6.1266  -5.9715  -5.9627   5.4517   5.4551   5.7910   5.9913
     6.5686   6.5869   6.8232   6.8800   7.0873   7.0978   7.2879   7.5192
     9.1193   9.2829   9.3726   9.5241   9.8016   9.8107   9.8571   9.8856
    10.1550  10.1653  10.2527  10.2640  10.6902  10.6909  11.0993  11.1507
    11.1643  11.2649  11.7556  11.8099  18.2689  18.3686  19.3993  19.4909
    20.5319  21.0176  21.8539  22.1266  22.4246  22.9784  23.4058  23.9865
    27.4788  27.6490  27.7220  27.9702

     occupation numbers 
     1.0000   1.0000   1.0000   1.0000   1.0000   1.0000   1.0000   1.0000
     1.0000   1.0000   1.0000   1.0000   1.0000   1.0000   1.0000   1.0000
     1.0000   1.0000   1.0000   1.0000   1.0000   1.0000   1.0000   1.0000
     1.0000   1.0000   1.0000   1.0000   1.0000   1.0000   1.0000   1.0000
     1.0000   1.0000   1.0000   1.0000   1.0000   1.0000   1.0000   1.0000
     1.0000   1.0000   1.0000   1.0000   1.0000   1.0000   1.0000   1.0000
     1.0000   1.0000   1.0000   1.0000   0.0000   0.0000   0.0000   0.0000
     0.0000   0.0000   0.0000   0.0000   0.0000   0.0000   0.0000   0.0000
     0.0000   0.0000   0.0000   0.0000

          k = 0.5000 1.0276 0.2845 (  1998 PWs)   bands (ev):

   -76.3977 -76.3972 -76.3761 -76.3730 -42.6111 -42.6077 -42.5876 -42.5798
   -42.5610 -42.5598 -42.5212 -42.5204 -42.5041 -42.5000 -42.4900 -42.4820
    -6.1706  -6.1687  -5.9610  -5.9553   5.3752   5.4346   5.8056   6.1622
     6.5180   6.6074   6.8103   6.8284   7.0977   7.2807   7.2894   7.6458
     9.0712   9.3041   9.4001   9.6088   9.7584   9.7822   9.8147   9.8889
    10.1447  10.1673  10.2456  10.2756  10.4774  10.5233  11.0605  11.1277
    11.1327  11.2298  11.9482  11.9654  17.9381  18.1465  19.5481  19.6357
    20.4059  21.1979  21.9665  22.1552  22.3886  23.0807  23.4257  24.3515
    27.3684  27.5400  27.7363  28.0124

     occupation numbers 
     1.0000   1.0000   1.0000   1.0000   1.0000   1.0000   1.0000   1.0000
     1.0000   1.0000   1.0000   1.0000   1.0000   1.0000   1.0000   1.0000
     1.0000   1.0000   1.0000   1.0000   1.0000   1.0000   1.0000   1.0000
     1.0000   1.0000   1.0000   1.0000   1.0000   1.0000   1.0000   1.0000
     1.0000   1.0000   1.0000   1.0000   1.0000   1.0000   1.0000   1.0000
     1.0000   1.0000   1.0000   1.0000   1.0000   1.0000   1.0000   1.0000
     1.0000   1.0000   1.0000   1.0000   0.0000   0.0000   0.0000   0.0000
     0.0000   0.0000   0.0000   0.0000   0.0000   0.0000   0.0000   0.0000
     0.0000   0.0000   0.0000   0.0000

          k = 0.5000 1.0880 0.3225 (  1997 PWs)   bands (ev):

   -76.3979 -76.3972 -76.3762 -76.3731 -42.6165 -42.6052 -42.5863 -42.5820
   -42.5636 -42.5547 -42.5262 -42.5175 -42.5026 -42.4946 -42.4899 -42.4830
    -6.2191  -6.2049  -5.9602  -5.9541   5.3326   5.4581   5.8139   6.3173
     6.4400   6.6387   6.7836   6.8310   7.1181   7.2684   7.4799   7.7376
     9.0420   9.3313   9.4314   9.6505   9.7063   9.7463   9.7747   9.8981
    10.1312  10.1810  10.2302  10.2964  10.3282  10.4030  11.0177  11.0872
    11.1044  11.1849  12.0714  12.1093  17.5948  17.9687  19.5228  19.6431
    20.5499  21.4226  21.8494  22.1497  22.6386  23.1964  23.5050  24.7040
    27.2610  27.2851  27.8187  28.0907

     occupation numbers 
     1.0000   1.0000   1.0000   1.0000   1.0000   1.0000   1.0000   1.0000
     1.0000   1.0000   1.0000   1.0000   1.0000   1.0000   1.0000   1.0000
     1.0000   1.0000   1.0000   1.0000   1.0000   1.0000   1.0000   1.0000
     1.0000   1.0000   1.0000   1.0000   1.0000   1.0000   1.0000   1.0000
     1.0000   1.0000   1.0000   1.0000   1.0000   1.0000   1.0000   1.0000
     1.0000   1.0000   1.0000   1.0000   1.0000   1.0000   1.0000   1.0000
     1.0000   1.0000   1.0000   1.0000   0.0000   0.0000   0.0000   0.0000
     0.0000   0.0000   0.0000   0.0000   0.0000   0.0000   0.0000   0.0000
     0.0000   0.0000   0.0000   0.0000

          k = 0.5000 1.1485 0.3604 (  1997 PWs)   bands (ev):

   -76.3981 -76.3973 -76.3763 -76.3732 -42.6181 -42.6052 -42.5865 -42.5814
   -42.5674 -42.5506 -42.5252 -42.5177 -42.5043 -42.4930 -42.4905 -42.4837
    -6.2723  -6.2336  -5.9806  -5.9500   5.3232   5.5236   5.8093   6.3362
     6.4585   6.6508   6.8303   6.8358   7.1343   7.2679   7.6069   7.8008
     8.9838   9.3618   9.4614   9.6168   9.6848   9.7043   9.7839   9.9113
    10.1101  10.1963  10.2059  10.2425  10.3504  10.3693  10.9758  11.0339
    11.0600  11.1480  12.1176  12.2221  17.2846  17.8213  19.2415  19.7094
    20.8585  21.5651  21.7312  22.3089  22.8348  23.2809  23.6678  25.0557
    27.0399  27.2099  28.0201  28.1546

     occupation numbers 
     1.0000   1.0000   1.0000   1.0000   1.0000   1.0000   1.0000   1.0000
     1.0000   1.0000   1.0000   1.0000   1.0000   1.0000   1.0000   1.0000
     1.0000   1.0000   1.0000   1.0000   1.0000   1.0000   1.0000   1.0000
     1.0000   1.0000   1.0000   1.0000   1.0000   1.0000   1.0000   1.0000
     1.0000   1.0000   1.0000   1.0000   1.0000   1.0000   1.0000   1.0000
     1.0000   1.0000   1.0000   1.0000   1.0000   1.0000   1.0000   1.0000
     1.0000   1.0000   1.0000   1.0000   0.0000   0.0000   0.0000   0.0000
     0.0000   0.0000   0.0000   0.0000   0.0000   0.0000   0.0000   0.0000
     0.0000   0.0000   0.0000   0.0000

          k = 0.5000 1.2089 0.3983 (  1994 PWs)   bands (ev):

   -76.3981 -76.3975 -76.3763 -76.3733 -42.6169 -42.6078 -42.5825 -42.5821
   -42.5602 -42.5485 -42.5238 -42.5222 -42.4969 -42.4916 -42.4882 -42.4852
    -6.3261  -6.2543  -6.0161  -5.9494   5.3520   5.6258   5.8012   6.2189
     6.5696   6.6747   6.8512   6.9265   7.1266   7.3143   7.6143   7.8472
     8.9058   9.3907   9.4831   9.5421   9.6612   9.7157   9.8035   9.9159
    10.0812  10.1656  10.2021  10.2331  10.4134  10.4544  10.9466  10.9701
    10.9898  11.1532  12.1028  12.2695  17.0177  17.7098  18.9206  19.7556
    21.2053  21.3977  21.9887  22.4964  22.9194  23.4096  23.8519  25.3403
    26.8323  27.1726  28.1743  28.2916

     occupation numbers 
     1.0000   1.0000   1.0000   1.0000   1.0000   1.0000   1.0000   1.0000
     1.0000   1.0000   1.0000   1.0000   1.0000   1.0000   1.0000   1.0000
     1.0000   1.0000   1.0000   1.0000   1.0000   1.0000   1.0000   1.0000
     1.0000   1.0000   1.0000   1.0000   1.0000   1.0000   1.0000   1.0000
     1.0000   1.0000   1.0000   1.0000   1.0000   1.0000   1.0000   1.0000
     1.0000   1.0000   1.0000   1.0000   1.0000   1.0000   1.0000   1.0000
     1.0000   1.0000   1.0000   1.0001   0.0000   0.0000   0.0000   0.0000
     0.0000   0.0000   0.0000   0.0000   0.0000   0.0000   0.0000   0.0000
     0.0000   0.0000   0.0000   0.0000

          k = 0.5000 1.2694 0.4363 (  1998 PWs)   bands (ev):

   -76.3983 -76.3977 -76.3766 -76.3736 -42.6173 -42.6076 -42.5855 -42.5847
   -42.5588 -42.5488 -42.5255 -42.5242 -42.4993 -42.4955 -42.4896 -42.4868
    -6.3791  -6.2644  -6.0645  -5.9528   5.4149   5.7438   5.7907   6.0849
     6.6458   6.7357   6.8827   7.0416   7.1063   7.3946   7.5519   7.8085
     8.8969   9.4032   9.4495   9.4921   9.6291   9.7518   9.8091   9.9006
    10.0594  10.1569  10.1894  10.2436  10.4863  10.5764  10.8876  10.8955
    10.9976  11.2084  12.0288  12.2348  16.7821  17.6460  18.5842  19.7592
    21.2566  21.5713  22.2391  22.6936  22.9041  23.6059  23.9798  25.5556
    26.7042  27.2118  28.1156  28.5266

     occupation numbers 
     1.0000   1.0000   1.0000   1.0000   1.0000   1.0000   1.0000   1.0000
     1.0000   1.0000   1.0000   1.0000   1.0000   1.0000   1.0000   1.0000
     1.0000   1.0000   1.0000   1.0000   1.0000   1.0000   1.0000   1.0000
     1.0000   1.0000   1.0000   1.0000   1.0000   1.0000   1.0000   1.0000
     1.0000   1.0000   1.0000   1.0000   1.0000   1.0000   1.0000   1.0000
     1.0000   1.0000   1.0000   1.0000   1.0000   1.0000   1.0000   1.0000
     1.0000   1.0000   1.0000   1.0000   0.0000   0.0000   0.0000   0.0000
     0.0000   0.0000   0.0000   0.0000   0.0000   0.0000   0.0000   0.0000
     0.0000   0.0000   0.0000   0.0000

          k = 0.4750 1.2694 0.4543 (  1998 PWs)   bands (ev):

   -76.3983 -76.3977 -76.3766 -76.3735 -42.6203 -42.6084 -42.5854 -42.5848
   -42.5591 -42.5478 -42.5282 -42.5231 -42.5003 -42.4948 -42.4882 -42.4839
    -6.3453  -6.2740  -6.0867  -5.9561   5.3941   5.6646   5.8043   6.1219
     6.6901   6.7408   6.8609   7.0624   7.0933   7.3563   7.6441   7.8666
     8.8521   9.4121   9.4523   9.5163   9.6461   9.7319   9.7983   9.9010
    10.0789  10.1410  10.1899  10.2455  10.4219  10.5151  10.8892  10.8980
    10.9543  11.1790  12.0920  12.2680  16.9431  17.6084  18.4119  19.7070
    21.3541  21.6704  22.2507  22.5612  23.0274  23.7184  24.0312  25.3561
    26.5796  27.2572  28.1581  28.4124

     occupation numbers 
     1.0000   1.0000   1.0000   1.0000   1.0000   1.0000   1.0000   1.0000
     1.0000   1.0000   1.0000   1.0000   1.0000   1.0000   1.0000   1.0000
     1.0000   1.0000   1.0000   1.0000   1.0000   1.0000   1.0000   1.0000
     1.0000   1.0000   1.0000   1.0000   1.0000   1.0000   1.0000   1.0000
     1.0000   1.0000   1.0000   1.0000   1.0000   1.0000   1.0000   1.0000
     1.0000   1.0000   1.0000   1.0000   1.0000   1.0000   1.0000   1.0000
     1.0000   1.0000   1.0000   1.0000   0.0000   0.0000   0.0000   0.0000
     0.0000   0.0000   0.0000   0.0000   0.0000   0.0000   0.0000   0.0000
     0.0000   0.0000   0.0000   0.0000

          k = 0.4500 1.2694 0.4723 (  2000 PWs)   bands (ev):

   -76.3984 -76.3977 -76.3766 -76.3736 -42.6224 -42.6098 -42.5883 -42.5826
   -42.5613 -42.5472 -42.5294 -42.5232 -42.5011 -42.4918 -42.4913 -42.4853
    -6.3116  -6.2818  -6.1112  -5.9592   5.3881   5.5921   5.8137   6.1441
     6.7311   6.7453   6.8488   7.0714   7.0842   7.3244   7.7273   7.9082
     8.8196   9.4229   9.4558   9.5397   9.6657   9.7094   9.7858   9.8957
    10.0887  10.1324  10.1932  10.2452  10.3642  10.4486  10.8750  10.8978
    10.9422  11.1607  12.1465  12.2890  17.1101  17.5722  18.2298  19.6583
    21.4274  21.7675  22.2628  22.4344  23.1557  23.7652  24.1578  25.1669
    26.4747  27.3081  28.2017  28.2895

     occupation numbers 
     1.0000   1.0000   1.0000   1.0000   1.0000   1.0000   1.0000   1.0000
     1.0000   1.0000   1.0000   1.0000   1.0000   1.0000   1.0000   1.0000
     1.0000   1.0000   1.0000   1.0000   1.0000   1.0000   1.0000   1.0000
     1.0000   1.0000   1.0000   1.0000   1.0000   1.0000   1.0000   1.0000
     1.0000   1.0000   1.0000   1.0000   1.0000   1.0000   1.0000   1.0000
     1.0000   1.0000   1.0000   1.0000   1.0000   1.0000   1.0000   1.0000
     1.0000   1.0000   1.0000   1.0001   0.0000   0.0000   0.0000   0.0000
     0.0000   0.0000   0.0000   0.0000   0.0000   0.0000   0.0000   0.0000
     0.0000   0.0000   0.0000   0.0000

          k = 0.4250 1.2694 0.4903 (  2000 PWs)   bands (ev):

   -76.3983 -76.3978 -76.3766 -76.3736 -42.6237 -42.6105 -42.5885 -42.5823
   -42.5611 -42.5453 -42.5304 -42.5238 -42.5007 -42.4917 -42.4909 -42.4837
    -6.2870  -6.2779  -6.1374  -5.9614   5.3950   5.5278   5.8201   6.1618
     6.7521   6.7578   6.8569   7.0382   7.1079   7.2988   7.8028   7.9267
     8.8009   9.4324   9.4598   9.5638   9.6867   9.6873   9.7718   9.8842
    10.0840  10.1384  10.2000  10.2413  10.3220  10.3871  10.8587  10.8949
    10.9454  11.1505  12.1937  12.2974  17.2906  17.5513  18.0493  19.6259
    21.4849  21.8662  22.2861  22.3133  23.2559  23.7499  24.3224  24.9686
    26.3981  27.3562  28.1546  28.2342

     occupation numbers 
     1.0000   1.0000   1.0000   1.0000   1.0000   1.0000   1.0000   1.0000
     1.0000   1.0000   1.0000   1.0000   1.0000   1.0000   1.0000   1.0000
     1.0000   1.0000   1.0000   1.0000   1.0000   1.0000   1.0000   1.0000
     1.0000   1.0000   1.0000   1.0000   1.0000   1.0000   1.0000   1.0000
     1.0000   1.0000   1.0000   1.0000   1.0000   1.0000   1.0000   1.0000
     1.0000   1.0000   1.0000   1.0000   1.0000   1.0000   1.0000   1.0000
     1.0000   1.0000   1.0000   1.0002   0.0000   0.0000   0.0000   0.0000
     0.0000   0.0000   0.0000   0.0000   0.0000   0.0000   0.0000   0.0000
     0.0000   0.0000   0.0000   0.0000

          k = 0.4000 1.2694 0.5083 (  2006 PWs)   bands (ev):

   -76.3985 -76.3979 -76.3768 -76.3737 -42.6249 -42.6197 -42.5877 -42.5838
   -42.5640 -42.5544 -42.5290 -42.5282 -42.5002 -42.4921 -42.4920 -42.4869
    -6.2898  -6.2454  -6.1685  -5.9629   5.4057   5.4740   5.8235   6.1751
     6.7596   6.7616   6.8867   6.9936   7.1340   7.2788   7.8642   7.9157
     8.7915   9.4376   9.4639   9.5843   9.6688   9.7085   9.7562   9.8698
    10.0757  10.1503  10.2087  10.2326  10.2981  10.3387  10.8472  10.8913
    10.9485  11.1470  12.2287  12.2940  17.4761  17.5397  17.8588  19.6008
    21.5113  21.9636  22.1887  22.3198  23.3263  23.7065  24.4919  24.7761
    26.3419  27.3948  28.0247  28.2349

     occupation numbers 
     1.0000   1.0000   1.0000   1.0000   1.0000   1.0000   1.0000   1.0000
     1.0000   1.0000   1.0000   1.0000   1.0000   1.0000   1.0000   1.0000
     1.0000   1.0000   1.0000   1.0000   1.0000   1.0000   1.0000   1.0000
     1.0000   1.0000   1.0000   1.0000   1.0000   1.0000   1.0000   1.0000
     1.0000   1.0000   1.0000   1.0000   1.0000   1.0000   1.0000   1.0000
     1.0000   1.0000   1.0000   1.0000   1.0000   1.0000   1.0000   1.0000
     1.0000   1.0000   1.0000   1.0001   0.0000   0.0000   0.0000   0.0000
     0.0000   0.0000   0.0000   0.0000   0.0000   0.0000   0.0000   0.0000
     0.0000   0.0000   0.0000   0.0000

          k = 0.3750 1.2694 0.5263 (  2008 PWs)   bands (ev):

   -76.3986 -76.3979 -76.3768 -76.3738 -42.6241 -42.6206 -42.5883 -42.5844
   -42.5612 -42.5567 -42.5319 -42.5300 -42.4997 -42.4947 -42.4944 -42.4877
    -6.2898  -6.2146  -6.2001  -5.9638   5.4315   5.4321   5.8247   6.1793
     6.7568   6.7709   6.9125   6.9557   7.1622   7.2603   7.8842   7.9148
     8.7916   9.4383   9.4677   9.5935   9.6596   9.7288   9.7396   9.8624
    10.0733  10.1642  10.2119  10.2261  10.2908  10.3157  10.8443  10.8842
    10.9527  11.1488  12.2534  12.2788  17.5405  17.6564  17.6651  19.5927
    21.5154  22.0629  22.0748  22.3513  23.3782  23.6744  24.5599  24.6617
    26.3287  27.4673  27.8990  28.2437

     occupation numbers 
     1.0000   1.0000   1.0000   1.0000   1.0000   1.0000   1.0000   1.0000
     1.0000   1.0000   1.0000   1.0000   1.0000   1.0000   1.0000   1.0000
     1.0000   1.0000   1.0000   1.0000   1.0000   1.0000   1.0000   1.0000
     1.0000   1.0000   1.0000   1.0000   1.0000   1.0000   1.0000   1.0000
     1.0000   1.0000   1.0000   1.0000   1.0000   1.0000   1.0000   1.0000
     1.0000   1.0000   1.0000   1.0000   1.0000   1.0000   1.0000   1.0000
     1.0000   1.0000   1.0000   1.0001   0.0000   0.0000   0.0000   0.0000
     0.0000   0.0000   0.0000   0.0000   0.0000   0.0000   0.0000   0.0000
     0.0000   0.0000   0.0000   0.0000

          k = 0.3500 1.1848 0.4912 (  1998 PWs)   bands (ev):

   -76.3982 -76.3974 -76.3764 -76.3734 -42.6199 -42.6138 -42.5832 -42.5828
   -42.5582 -42.5509 -42.5295 -42.5262 -42.4990 -42.4946 -42.4881 -42.4833
    -6.2848  -6.1359  -6.1182  -5.9627   5.2728   5.2743   5.8400   6.3363
     6.6783   6.6854   6.8897   6.9717   6.9996   7.1601   8.1237   8.2255
     8.5450   9.4891   9.5425   9.5875   9.6239   9.7363   9.7425   9.9171
    10.0303  10.0793  10.2053  10.2410  10.2648  10.2911  10.5929  10.8971
    11.0712  11.1096  12.3979  12.4222  17.5641  18.0056  18.0200  19.4976
    21.5248  21.6337  21.7213  22.3887  23.1696  23.7810  24.2749  24.4014
    26.3203  27.4115  27.7542  28.1799

     occupation numbers 
     1.0000   1.0000   1.0000   1.0000   1.0000   1.0000   1.0000   1.0000
     1.0000   1.0000   1.0000   1.0000   1.0000   1.0000   1.0000   1.0000
     1.0000   1.0000   1.0000   1.0000   1.0000   1.0000   1.0000   1.0000
     1.0000   1.0000   1.0000   1.0000   1.0000   1.0000   1.0000   1.0000
     1.0000   1.0000   1.0000   1.0000   1.0000   1.0000   1.0000   1.0000
     1.0000   1.0000   1.0000   1.0000   1.0000   1.0000   1.0000   1.0000
     1.0000   1.0000   1.0049   1.0093   0.0000   0.0000   0.0000   0.0000
     0.0000   0.0000   0.0000   0.0000   0.0000   0.0000   0.0000   0.0000
     0.0000   0.0000   0.0000   0.0000

          k = 0.3250 1.1001 0.4562 (  1998 PWs)   bands (ev):

   -76.3981 -76.3972 -76.3763 -76.3732 -42.6173 -42.6129 -42.5837 -42.5821
   -42.5546 -42.5533 -42.5307 -42.5285 -42.5003 -42.4971 -42.4880 -42.4847
    -6.2613  -6.0715  -6.0510  -5.9696   5.1621   5.1683   5.8518   6.3668
     6.6413   6.6491   6.8111   6.8640   7.0383   7.1720   8.1655   8.3091
[...]
     1.0000   1.0000   0.1745   0.1059   0.0040   0.0035   0.0004   0.0002
     0.0000   0.0000   0.0000   0.0000   0.0000   0.0000   0.0000   0.0000
     0.0000   0.0000   0.0000   0.0000   0.0000   0.0000   0.0000   0.0000
     0.0000   0.0000   0.0000   0.0000   0.0000   0.0000   0.0000   0.0000
     0.0000   0.0000   0.0000   0.0000

          k = 0.5000 0.9309 0.6487 (  1964 PWs)   bands (ev):

   -72.5549 -72.5542 -72.5519 -72.5492 -38.8826 -38.8800 -38.8699 -38.8683
   -38.8620 -38.8599 -38.8549 -38.8509 -38.8406 -38.8383 -38.8329 -38.8312
    -5.4148  -5.4060  -5.3705  -5.3601   5.4304   5.4456   6.7775   6.8039
     7.9665   7.9907   8.1587   8.1645   8.8499   8.9338   8.9818   9.0509
    10.8481  10.9189  12.8659  12.8768  12.9648  12.9861  13.0290  13.0297
    13.2528  13.2622  13.3073  13.3131  13.3320  13.3336  13.4835  13.4899
    14.9835  14.9866  15.1506  15.1650  18.0796  18.1885  19.1807  19.2571
    21.8486  21.8935  22.2413  22.2946  24.4560  24.5558  26.7941  26.8280
    27.2228  27.3751  29.1066  29.2346

     occupation numbers 
     1.0000   1.0000   1.0000   1.0000   1.0000   1.0000   1.0000   1.0000
     1.0000   1.0000   1.0000   1.0000   1.0000   1.0000   1.0000   1.0000
     1.0000   1.0000   1.0000   1.0000   1.0000   1.0000   1.0000   1.0000
     1.0000   1.0000   1.0000   1.0000   1.0000   1.0000   1.0000   1.0000
     1.0000   1.0000   0.0722   0.0563   0.0048   0.0024   0.0005   0.0005
     0.0000   0.0000   0.0000   0.0000   0.0000   0.0000   0.0000   0.0000
     0.0000   0.0000   0.0000   0.0000   0.0000   0.0000   0.0000   0.0000
     0.0000   0.0000   0.0000   0.0000   0.0000   0.0000   0.0000   0.0000
     0.0000   0.0000   0.0000   0.0000

          k = 0.5000 0.8886 0.6752 (  1960 PWs)   bands (ev):

   -72.5548 -72.5541 -72.5517 -72.5490 -38.8828 -38.8804 -38.8659 -38.8624
   -38.8622 -38.8607 -38.8519 -38.8510 -38.8383 -38.8355 -38.8327 -38.8317
    -5.4082  -5.4054  -5.3598  -5.3560   5.3961   5.3980   6.7881   6.7943
     7.9709   7.9766   8.1510   8.1523   8.9293   8.9538   9.0444   9.0638
    10.8197  10.8386  12.8916  12.8944  12.9609  12.9700  13.0263  13.0284
    13.2576  13.2603  13.3124  13.3133  13.3319  13.3335  13.4722  13.4744
    15.0385  15.0391  15.1807  15.1850  18.0692  18.1013  19.1761  19.1936
    21.8471  21.8590  22.2371  22.2546  24.5356  24.5609  26.8267  26.8296
    27.2789  27.3180  29.2116  29.2338

     occupation numbers 
     1.0000   1.0000   1.0000   1.0000   1.0000   1.0000   1.0000   1.0000
     1.0000   1.0000   1.0000   1.0000   1.0000   1.0000   1.0000   1.0000
     1.0000   1.0000   1.0000   1.0000   1.0000   1.0000   1.0000   1.0000
     1.0000   1.0000   1.0000   1.0000   1.0000   1.0000   1.0000   1.0000
     1.0000   1.0000   0.0394   0.0368   0.0055   0.0041   0.0005   0.0005
     0.0000   0.0000   0.0000   0.0000   0.0000   0.0000   0.0000   0.0000
     0.0000   0.0000   0.0000   0.0000   0.0000   0.0000   0.0000   0.0000
     0.0000   0.0000   0.0000   0.0000   0.0000   0.0000   0.0000   0.0000
     0.0000   0.0000   0.0000   0.0000

          k = 0.5000 0.8463 0.7018 (  1968 PWs)   bands (ev):

   -72.5552 -72.5545 -72.5517 -72.5490 -38.8910 -38.8908 -38.8690 -38.8689
   -38.8598 -38.8597 -38.8580 -38.8573 -38.8410 -38.8394 -38.8303 -38.8290
    -5.4065  -5.4056  -5.3574  -5.3565   5.3808   5.3808   6.7908   6.7908
     7.9705   7.9711   8.1480   8.1484   8.9584   8.9593   9.0727   9.0727
    10.8100  10.8100  12.8992  12.9001  12.9590  12.9594  13.0273  13.0284
    13.2589  13.2603  13.3137  13.3140  13.3322  13.3333  13.4691  13.4693
    15.0552  15.0558  15.1921  15.1935  18.0452  18.0453  19.1737  19.1742
    21.8347  21.8348  22.2441  22.2441  24.5627  24.5627  26.8114  26.8116
    27.2881  27.2882  29.2123  29.2124

     occupation numbers 
     1.0000   1.0000   1.0000   1.0000   1.0000   1.0000   1.0000   1.0000
     1.0000   1.0000   1.0000   1.0000   1.0000   1.0000   1.0000   1.0000
     1.0000   1.0000   1.0000   1.0000   1.0000   1.0000   1.0000   1.0000
     1.0000   1.0000   1.0000   1.0000   1.0000   1.0000   1.0000   1.0000
     1.0000   1.0000   0.0325   0.0318   0.0058   0.0058   0.0005   0.0005
     0.0000   0.0000   0.0000   0.0000   0.0000   0.0000   0.0000   0.0000
     0.0000   0.0000   0.0000   0.0000   0.0000   0.0000   0.0000   0.0000
     0.0000   0.0000   0.0000   0.0000   0.0000   0.0000   0.0000   0.0000
     0.0000   0.0000   0.0000   0.0000

          k = 0.4861 0.8933 0.6823 (  1960 PWs)   bands (ev):

   -72.5548 -72.5541 -72.5517 -72.5490 -38.8861 -38.8795 -38.8653 -38.8630
   -38.8618 -38.8611 -38.8519 -38.8510 -38.8386 -38.8335 -38.8321 -38.8317
    -5.4090  -5.4049  -5.3594  -5.3582   5.3971   5.3997   6.7866   6.7946
     7.9732   7.9741   8.1525   8.1532   8.9311   8.9533   9.0399   9.0665
    10.8179  10.8414  12.8910  12.8919  12.9600  12.9723  13.0252  13.0280
    13.2574  13.2601  13.3124  13.3138  13.3311  13.3353  13.4722  13.4745
    15.0347  15.0353  15.1827  15.1841  18.0798  18.0907  19.1715  19.1975
    21.8552  21.8563  22.2390  22.2563  24.5340  24.5649  26.8224  26.8363
    27.2940  27.3027  29.1980  29.2312

     occupation numbers 
     1.0000   1.0000   1.0000   1.0000   1.0000   1.0000   1.0000   1.0000
     1.0000   1.0000   1.0000   1.0000   1.0000   1.0000   1.0000   1.0000
     1.0000   1.0000   1.0000   1.0000   1.0000   1.0000   1.0000   1.0000
     1.0000   1.0000   1.0000   1.0000   1.0000   1.0000   1.0000   1.0000
     1.0000   1.0000   0.0400   0.0391   0.0056   0.0038   0.0006   0.0005
     0.0000   0.0000   0.0000   0.0000   0.0000   0.0000   0.0000   0.0000
     0.0000   0.0000   0.0000   0.0000   0.0000   0.0000   0.0000   0.0000
     0.0000   0.0000   0.0000   0.0000   0.0000   0.0000   0.0000   0.0000
     0.0000   0.0000   0.0000   0.0000

          k = 0.4722 0.9403 0.6628 (  1963 PWs)   bands (ev):

   -72.5550 -72.5543 -72.5517 -72.5491 -38.8827 -38.8797 -38.8701 -38.8659
   -38.8634 -38.8621 -38.8563 -38.8499 -38.8394 -38.8347 -38.8336 -38.8313
    -5.4178  -5.4026  -5.3699  -5.3676   5.4436   5.4448   6.7721   6.8131
     7.9770   7.9786   8.1657   8.1664   8.8570   8.9426   8.9605   9.0596
    10.8412  10.9300  12.8644  12.8656  12.9613  12.9958  13.0166  13.0338
    13.2520  13.2615  13.3078  13.3134  13.3255  13.3437  13.4849  13.4906
    14.9680  14.9690  15.1612  15.1625  18.1350  18.1409  19.1724  19.2732
    21.8769  21.8778  22.2421  22.3097  24.4517  24.5715  26.7983  26.8005
    27.2842  27.2899  29.0850  29.2175

     occupation numbers 
     1.0000   1.0000   1.0000   1.0000   1.0000   1.0000   1.0000   1.0000
     1.0000   1.0000   1.0000   1.0000   1.0000   1.0000   1.0000   1.0000
     1.0000   1.0000   1.0000   1.0000   1.0000   1.0000   1.0000   1.0000
     1.0000   1.0000   1.0000   1.0000   1.0000   1.0000   1.0000   1.0000
     1.0000   1.0000   0.0746   0.0727   0.0054   0.0017   0.0008   0.0004
     0.0000   0.0000   0.0000   0.0000   0.0000   0.0000   0.0000   0.0000
     0.0000   0.0000   0.0000   0.0000   0.0000   0.0000   0.0000   0.0000
     0.0000   0.0000   0.0000   0.0000   0.0000   0.0000   0.0000   0.0000
     0.0000   0.0000   0.0000   0.0000

          k = 0.4583 0.9873 0.6433 (  1969 PWs)   bands (ev):

   -72.5552 -72.5545 -72.5520 -72.5493 -38.8812 -38.8777 -38.8736 -38.8715
   -38.8663 -38.8658 -38.8567 -38.8518 -38.8429 -38.8398 -38.8389 -38.8304
    -5.4327  -5.4055  -5.3877  -5.3749   5.5203   5.5214   6.7423   6.8236
     7.9822   7.9892   8.1861   8.1868   8.7482   8.8379   8.9374   9.0540
    10.8795  11.0615  12.8200  12.8218  12.9638  12.9982  13.0026  13.0574
    13.2425  13.2642  13.2981  13.3130  13.3188  13.3605  13.5170  13.5190
    14.8507  14.8553  15.1378  15.1400  18.2129  18.2141  19.1670  19.3821
    21.9267  21.9273  22.2449  22.4046  24.3246  24.5824  26.6892  26.6957
    27.3273  27.3418  28.8712  29.1727

     occupation numbers 
     1.0000   1.0000   1.0000   1.0000   1.0000   1.0000   1.0000   1.0000
     1.0000   1.0000   1.0000   1.0000   1.0000   1.0000   1.0000   1.0000
     1.0000   1.0000   1.0000   1.0000   1.0000   1.0000   1.0000   1.0000
     1.0000   1.0000   1.0000   1.0000   1.0000   1.0000   1.0000   1.0000
     1.0000   1.0000   0.1799   0.1743   0.0050   0.0015   0.0013   0.0002
     0.0000   0.0000   0.0000   0.0000   0.0000   0.0000   0.0000   0.0000
     0.0000   0.0000   0.0000   0.0000   0.0000   0.0000   0.0000   0.0000
     0.0000   0.0000   0.0000   0.0000   0.0000   0.0000   0.0000   0.0000
     0.0000   0.0000   0.0000   0.0000

          k = 0.4444 1.0343 0.6238 (  1977 PWs)   bands (ev):

   -72.5554 -72.5548 -72.5524 -72.5497 -38.8848 -38.8832 -38.8751 -38.8725
   -38.8695 -38.8680 -38.8578 -38.8569 -38.8464 -38.8424 -38.8406 -38.8351
    -5.4537  -5.4241  -5.4129  -5.3715   5.6213   5.6216   6.7079   6.8433
     7.9919   8.0035   8.2131   8.2135   8.6243   8.6794   8.9258   9.0375
    10.9312  11.2224  12.7597  12.7628  12.9663  12.9846  12.9865  13.0760
    13.2269  13.2679  13.2829  13.3114  13.3121  13.3794  13.5512  13.5868
    14.6922  14.7010  15.1143  15.1167  18.2871  18.2888  19.1444  19.5359
    21.9999  22.0000  22.2432  22.5527  24.1678  24.5976  26.5221  26.5540
    27.4470  27.4598  28.6186  29.1068

     occupation numbers 
     1.0000   1.0000   1.0000   1.0000   1.0000   1.0000   1.0000   1.0000
     1.0000   1.0000   1.0000   1.0000   1.0000   1.0000   1.0000   1.0000
     1.0000   1.0000   1.0000   1.0000   1.0000   1.0000   1.0000   1.0000
     1.0000   1.0000   1.0000   1.0000   1.0000   1.0000   1.0000   1.0000
     1.0000   1.0000   0.4373   0.4213   0.0046   0.0025   0.0023   0.0001
     0.0000   0.0000   0.0000   0.0000   0.0000   0.0000   0.0000   0.0000
     0.0000   0.0000   0.0000   0.0000   0.0000   0.0000   0.0000   0.0000
     0.0000   0.0000   0.0000   0.0000   0.0000   0.0000   0.0000   0.0000
     0.0000   0.0000   0.0000   0.0000

          k = 0.4306 1.0813 0.6043 (  1983 PWs)   bands (ev):

   -72.5556 -72.5550 -72.5528 -72.5500 -38.8845 -38.8837 -38.8783 -38.8757
   -38.8695 -38.8672 -38.8656 -38.8601 -38.8561 -38.8425 -38.8400 -38.8362
    -5.4802  -5.4506  -5.4409  -5.3612   5.7439   5.7444   6.6868   6.8523
     8.0041   8.0215   8.2354   8.2446   8.4984   8.5252   8.9125   9.0216
    10.9947  11.4006  12.6876  12.6925  12.9620  12.9682  12.9714  13.0835
    13.2022  13.2642  13.2724  13.3025  13.3105  13.3968  13.5897  13.6845
    14.5046  14.5213  15.0883  15.0915  18.3733  18.3737  19.1041  19.7165
    22.1067  22.1069  22.2514  22.7532  23.9910  24.6171  26.3116  26.3664
    27.5743  27.6231  28.3063  29.0502

     occupation numbers 
     1.0000   1.0000   1.0000   1.0000   1.0000   1.0000   1.0000   1.0000
     1.0000   1.0000   1.0000   1.0000   1.0000   1.0000   1.0000   1.0000
     1.0000   1.0000   1.0000   1.0000   1.0000   1.0000   1.0000   1.0000
     1.0000   1.0000   1.0000   1.0000   1.0000   1.0000   1.0000   1.0000
     1.0000   1.0000   0.8228   0.7990   0.0053   0.0043   0.0039   0.0000
     0.0000   0.0000   0.0000   0.0000   0.0000   0.0000   0.0000   0.0000
     0.0000   0.0000   0.0000   0.0000   0.0000   0.0000   0.0000   0.0000
     0.0000   0.0000   0.0000   0.0000   0.0000   0.0000   0.0000   0.0000
     0.0000   0.0000   0.0000   0.0000

          k = 0.4167 1.1283 0.5848 (  1988 PWs)   bands (ev):

   -72.5558 -72.5552 -72.5531 -72.5503 -38.8897 -38.8875 -38.8810 -38.8758
   -38.8698 -38.8696 -38.8624 -38.8603 -38.8592 -38.8455 -38.8394 -38.8383
    -5.5136  -5.4819  -5.4721  -5.3483   5.8811   5.8826   6.6596   6.8780
     8.0152   8.0449   8.2262   8.2794   8.3548   8.4169   8.9024   9.0059
    11.0690  11.5863  12.6092  12.6166  12.9440  12.9482  12.9713  13.0837
    13.1696  13.2435  13.2717  13.2945  13.3079  13.4132  13.6266  13.7905
    14.3001  14.3273  15.0601  15.0628  18.4385  18.4449  19.0343  19.9303
    22.2297  22.2528  22.2847  23.0093  23.8071  24.6411  26.0824  26.1426
    27.7199  27.7355  28.1236  28.9892

     occupation numbers 
     1.0000   1.0000   1.0000   1.0000   1.0000   1.0000   1.0000   1.0000
     1.0000   1.0000   1.0000   1.0000   1.0000   1.0000   1.0000   1.0000
     1.0000   1.0000   1.0000   1.0000   1.0000   1.0000   1.0000   1.0000
     1.0000   1.0000   1.0000   1.0000   1.0000   1.0000   1.0000   1.0000
     1.0000   1.0000   1.0638   1.0536   0.0093   0.0082   0.0039   0.0000
     0.0000   0.0000   0.0000   0.0000   0.0000   0.0000   0.0000   0.0000
     0.0000   0.0000   0.0000   0.0000   0.0000   0.0000   0.0000   0.0000
     0.0000   0.0000   0.0000   0.0000   0.0000   0.0000   0.0000   0.0000
     0.0000   0.0000   0.0000   0.0000

          k = 0.4028 1.1753 0.5653 (  2000 PWs)   bands (ev):

   -72.5563 -72.5556 -72.5535 -72.5507 -38.8949 -38.8929 -38.8854 -38.8822
   -38.8742 -38.8710 -38.8672 -38.8654 -38.8592 -38.8525 -38.8442 -38.8422
    -5.5534  -5.5165  -5.5049  -5.3341   6.0199   6.0217   6.6512   6.9017
     8.0094   8.0729   8.1692   8.2147   8.3114   8.4043   8.8928   8.9901
    11.1523  11.7733  12.5305  12.5417  12.9288  12.9299  12.9702  13.0747
    13.1319  13.2189  13.2566  13.2929  13.3046  13.4302  13.6620  13.8735
    14.0845  14.1476  15.0271  15.0294  18.4715  18.4813  18.9178  20.1629
    22.2573  22.4410  22.4608  23.3128  23.6207  24.6697  25.8320  25.9024
    27.5868  27.8708  28.2117  28.9439

     occupation numbers 
     1.0000   1.0000   1.0000   1.0000   1.0000   1.0000   1.0000   1.0000
     1.0000   1.0000   1.0000   1.0000   1.0000   1.0000   1.0000   1.0000
     1.0000   1.0000   1.0000   1.0000   1.0000   1.0000   1.0000   1.0000
     1.0000   1.0000   1.0000   1.0000   1.0000   1.0000   1.0000   1.0000
     1.0000   1.0000   1.0654   1.0724   0.0146   0.0141   0.0041   0.0001
     0.0000   0.0000   0.0000   0.0000   0.0000   0.0000   0.0000   0.0000
     0.0000   0.0000   0.0000   0.0000   0.0000   0.0000   0.0000   0.0000
     0.0000   0.0000   0.0000   0.0000   0.0000   0.0000   0.0000   0.0000
     0.0000   0.0000   0.0000   0.0000

          k = 0.3889 1.2224 0.5458 (  2005 PWs)   bands (ev):

   -72.5566 -72.5558 -72.5538 -72.5508 -38.8989 -38.8935 -38.8867 -38.8816
   -38.8759 -38.8695 -38.8674 -38.8650 -38.8600 -38.8563 -38.8485 -38.8455
    -5.5988  -5.5489  -5.5367  -5.3200   6.1574   6.1593   6.6630   6.9233
     7.9484   8.0972   8.1077   8.1463   8.3391   8.4284   8.8887   8.9734
    11.2426  11.9543  12.4569  12.4747  12.9168  12.9224  12.9662  13.0428
    13.1052  13.1888  13.2323  13.2909  13.3003  13.4488  13.6960  13.8200
    13.8722  14.0982  14.9917  14.9931  18.4967  18.5018  18.7632  20.3970
    22.2643  22.6706  22.6922  23.4444  23.7052  24.7024  25.5946  25.6703
    27.3332  28.0431  28.4279  28.9447

     occupation numbers 
     1.0000   1.0000   1.0000   1.0000   1.0000   1.0000   1.0000   1.0000
     1.0000   1.0000   1.0000   1.0000   1.0000   1.0000   1.0000   1.0000
     1.0000   1.0000   1.0000   1.0000   1.0000   1.0000   1.0000   1.0000
     1.0000   1.0000   1.0000   1.0000   1.0000   1.0000   1.0000   1.0000
     1.0000   1.0000   1.0207   1.0293   0.0204   0.0174   0.0046   0.0003
     0.0000   0.0000   0.0000   0.0000   0.0000   0.0000   0.0000   0.0000
     0.0000   0.0000   0.0000   0.0000   0.0000   0.0000   0.0000   0.0000
     0.0000   0.0000   0.0000   0.0000   0.0000   0.0000   0.0000   0.0000
     0.0000   0.0000   0.0000   0.0000

          k = 0.3750 1.2694 0.5263 (  2008 PWs)   bands (ev):

   -72.5567 -72.5561 -72.5539 -72.5510 -38.8975 -38.8942 -38.8891 -38.8830
   -38.8715 -38.8704 -38.8675 -38.8642 -38.8614 -38.8561 -38.8533 -38.8474
    -5.6490  -5.5800  -5.5655  -5.3066   6.2850   6.2908   6.7021   6.9343
     7.8470   8.0122   8.1529   8.1714   8.3668   8.4545   8.8906   8.9579
    11.3392  12.1194  12.3922  12.4239  12.9072  12.9275  12.9587  12.9898
    13.0927  13.1482  13.2043  13.2818  13.2948  13.4676  13.6537  13.6651
    13.7446  14.1609  14.9527  14.9539  18.4884  18.4947  18.5641  20.6224
    22.2540  22.9432  22.9530  23.2838  24.1764  24.7399  25.3555  25.4627
    27.0878  28.2146  28.6491  28.9862

     occupation numbers 
     1.0000   1.0000   1.0000   1.0000   1.0000   1.0000   1.0000   1.0000
     1.0000   1.0000   1.0000   1.0000   1.0000   1.0000   1.0000   1.0000
     1.0000   1.0000   1.0000   1.0000   1.0000   1.0000   1.0000   1.0000
     1.0000   1.0000   1.0000   1.0000   1.0000   1.0000   1.0000   1.0000
     1.0000   1.0000   1.0041   1.0097   0.0264   0.0151   0.0059   0.0021
     0.0000   0.0000   0.0000   0.0000   0.0000   0.0000   0.0000   0.0000
     0.0000   0.0000   0.0000   0.0000   0.0000   0.0000   0.0000   0.0000
     0.0000   0.0000   0.0000   0.0000   0.0000   0.0000   0.0000   0.0000
     0.0000   0.0000   0.0000   0.0000

     the Fermi energy is    12.7669 ev

     Writing output data file espresso.save

     init_run     :      2.75s CPU      2.33s WALL (       1 calls)
     electrons    :    288.31s CPU    315.74s WALL (       1 calls)

     Called by init_run:
     wfcinit      :      0.00s CPU      0.00s WALL (       1 calls)
     wfcinit:atom :      0.20s CPU      0.23s WALL (     178 calls)
     wfcinit:wfcr :     18.73s CPU     21.57s WALL (     178 calls)
     potinit      :      0.81s CPU      0.24s WALL (       1 calls)

     Called by electrons:
     c_bands      :    288.30s CPU    315.67s WALL (       1 calls)
     v_of_rho     :      0.06s CPU      0.01s WALL (       1 calls)
     v_h          :      0.00s CPU      0.00s WALL (       1 calls)
     v_xc         :      0.06s CPU      0.01s WALL (       1 calls)
     newd         :      0.03s CPU      0.10s WALL (       1 calls)
     PAW_pot      :      0.72s CPU      0.19s WALL (       1 calls)

     Called by c_bands:
     init_us_2    :      0.20s CPU      0.24s WALL (     178 calls)
     cegterg      :    267.95s CPU    292.34s WALL (     189 calls)

     Called by sum_band:

     Called by *egterg:
     h_psi        :    113.06s CPU    134.88s WALL (    2737 calls)
     s_psi        :      5.31s CPU      2.64s WALL (    2737 calls)
     g_psi        :      0.08s CPU      0.21s WALL (    2370 calls)
     cdiaghg      :    128.62s CPU    151.78s WALL (    2548 calls)
     cegterg:over :     15.52s CPU     10.08s WALL (    2370 calls)
     cegterg:upda :      9.83s CPU      4.91s WALL (    2370 calls)
     cegterg:last :      8.22s CPU      3.24s WALL (     448 calls)

     Called by h_psi:
     h_psi:pot    :    112.73s CPU    134.57s WALL (    2737 calls)
     h_psi:calbec :      6.25s CPU      3.94s WALL (    2737 calls)
     vloc_psi     :    101.64s CPU    128.02s WALL (    2737 calls)
     add_vuspsi   :      4.84s CPU      2.58s WALL (    2737 calls)

     General routines
     calbec       :      6.25s CPU      3.94s WALL (    2737 calls)
     fft          :      0.02s CPU      0.02s WALL (       9 calls)
     ffts         :      0.02s CPU      0.02s WALL (       2 calls)
     fftw         :     88.33s CPU    111.07s WALL (  197388 calls)
     interpolate  :      0.02s CPU      0.02s WALL (       2 calls)
     davcio       :      0.00s CPU      0.08s WALL (     356 calls)

     Parallel routines
     fft_scatter  :     20.61s CPU     27.76s WALL (  197399 calls)

     PAW routines
     PAW_pot      :      0.72s CPU      0.19s WALL (       1 calls)

     PWSCF        :  4m53.19s CPU     5m22.32s WALL


   This run was terminated on:  21:18:27   9Jan2024            

=------------------------------------------------------------------------------=
   JOB DONE.
=------------------------------------------------------------------------------=
