
     Program PWSCF v.6.1 starts on  9Jan2024 at 18:50:39 

     This program is part of the open-source Quantum ESPRESSO suite
     for quantum simulation of materials; please cite
         "P. Giannozzi et al., J. Phys.:Condens. Matter 21 395502 (2009);
          URL http://www.quantum-espresso.org", 
     in publications or presentations arising from this work. More details at
     http://www.quantum-espresso.org/quote

     Parallel version (MPI & OpenMP), running on      50 processor cores
     Number of MPI processes:                 5
     Threads/MPI process:                    10
     R & G space division:  proc/nbgrp/npool/nimage =       5
     Reading input from espresso.in

     Current dimensions of program PWSCF are:
     Max number of different atomic species (ntypx) = 10
     Max number of k-points (npk) =  40000
     Max angular momentum in pseudopotentials (lmaxx) =  3
               file Fe.pz-spn-kjpaw_psl.0.2.1.UPF: wavefunction(s)  3D renormalized
               file O.pz-n-kjpaw_psl.0.1.UPF: wavefunction(s)  2P renormalized

     Subspace diagonalization in iterative solution of the eigenvalue problem:
     a serial algorithm will be used

     Found symmetry operation: I + (  0.5000 -0.5000  0.0000)
     This is a supercell, fractional translations are disabled

     Parallelization info
     --------------------
     sticks:   dense  smooth     PW     G-vecs:    dense   smooth      PW
     Min         301     134     43                10826     3203     577
     Max         302     135     44                10827     3205     580
     Sum        1509     673    217                54131    16021    2893


     Title: 
     sdd(SCF)                                                                   


     bravais-lattice index     =          -12
     lattice parameter (alat)  =      10.1022  a.u.
     unit-cell volume          =     573.5565 (a.u.)^3
     number of atoms/cell      =            8
     number of atomic types    =            2
     number of electrons       =        88.00
     number of Kohn-Sham states=           53
     kinetic-energy cutoff     =      35.0000  Ry
     charge density cutoff     =     315.0000  Ry
     convergence threshold     =      1.0E-06
     mixing beta               =       0.4000
     number of iterations used =            8  plain     mixing
     Exchange-correlation      =  SLA  PZ   NOGX NOGC ( 1  1  0  0 0 0)

     celldm(1)=  10.102230  celldm(2)=   0.590841  celldm(3)=   0.994962
     celldm(4)=   0.000000  celldm(5)=  -0.323174  celldm(6)=   0.000000

     crystal axes: (cart. coord. in units of alat)
               a(1) = (   1.000000   0.000000   0.000000 )  
               a(2) = (   0.000000   0.590841   0.000000 )  
               a(3) = (  -0.321546   0.000000   0.941572 )  

     reciprocal axes: (cart. coord. in units 2 pi/alat)
               b(1) = (  1.000000 -0.000000  0.341499 )  
               b(2) = (  0.000000  1.692502 -0.000000 )  
               b(3) = (  0.000000  0.000000  1.062053 )  


     PseudoPot. # 1 for Fe read from file:
     C:\Users\didar\.burai\.pseudopot/Fe.pz-spn-kjpaw_psl.0.2.1.UPF
     MD5 check sum: 27df73d5ef6bc58e09d33ce26ec3cbe0
     Pseudo is Projector augmented-wave + core cor, Zval = 16.0
     Generated using "atomic" code by A. Dal Corso  v.5.0.99 svn rev. 10869
     Shape of augmentation charge: PSQ
     Using radial grid of 1191 points,  6 beta functions with: 
                l(1) =   0
                l(2) =   0
                l(3) =   1
                l(4) =   1
                l(5) =   2
                l(6) =   2
     Q(r) pseudized with 0 coefficients 


     PseudoPot. # 2 for  O read from file:
     C:\Users\didar\.burai\.pseudopot/O.pz-n-kjpaw_psl.0.1.UPF
     MD5 check sum: ca354609ecacc13f4887e8db23a80a40
     Pseudo is Projector augmented-wave + core cor, Zval =  6.0
     Generated using "atomic" code by A. Dal Corso  v.5.0.99 svn rev. 10869
     Shape of augmentation charge: BESSEL
     Using radial grid of 1095 points,  4 beta functions with: 
                l(1) =   0
                l(2) =   0
                l(3) =   1
                l(4) =   1
     Q(r) pseudized with 0 coefficients 


     atomic species   valence    mass     pseudopotential
        Fe            16.00    55.84500     Fe( 1.00)
        O              6.00    15.99940      O( 1.00)

     Starting magnetic structure 
     atomic species   magnetization
        Fe           0.200
        O            0.000

      4 Sym. Ops., with inversion, found


                                    s                        frac. trans.

      isym =  1     identity                                     

 cryst.   s( 1) = (     1          0          0      )
                  (     0          1          0      )
                  (     0          0          1      )

 cart.    s( 1) = (  1.0000000  0.0000000  0.0000000 )
                  (  0.0000000  1.0000000  0.0000000 )
                  (  0.0000000  0.0000000  1.0000000 )


      isym =  2     180 deg rotation - cart. axis [0,1,0]        

 cryst.   s( 2) = (    -1          0          0      )
                  (     0          1          0      )
                  (     0          0         -1      )

 cart.    s( 2) = ( -1.0000000  0.0000000 -0.0000000 )
                  (  0.0000000  1.0000000  0.0000000 )
                  (  0.0000000  0.0000000 -1.0000000 )


      isym =  3     inversion                                    

 cryst.   s( 3) = (    -1          0          0      )
                  (     0         -1          0      )
                  (     0          0         -1      )

 cart.    s( 3) = ( -1.0000000  0.0000000 -0.0000000 )
                  (  0.0000000 -1.0000000  0.0000000 )
                  (  0.0000000  0.0000000 -1.0000000 )


      isym =  4     inv. 180 deg rotation - cart. axis [0,1,0]   

 cryst.   s( 4) = (     1          0          0      )
                  (     0         -1          0      )
                  (     0          0          1      )

 cart.    s( 4) = (  1.0000000  0.0000000  0.0000000 )
                  (  0.0000000 -1.0000000  0.0000000 )
                  (  0.0000000  0.0000000  1.0000000 )


     point group C_2h (2/m) 
     there are  4 classes
     the character table:

       E     C2    i     s_h  
A_g    1.00  1.00  1.00  1.00
B_g    1.00 -1.00  1.00 -1.00
A_u    1.00  1.00 -1.00 -1.00
B_u    1.00 -1.00 -1.00  1.00

     the symmetry operations in each class and the name of the first element:

     E        1
          identity                                               
     C2       2
          180 deg rotation - cart. axis [0,1,0]                  
     i        3
          inversion                                              
     s_h      4
          inv. 180 deg rotation - cart. axis [0,1,0]             

   Cartesian axes

     site n.     atom                  positions (alat units)
         1           Fe  tau(   1) = (   0.0000000   0.0000000   0.0000000  )
         2           Fe  tau(   2) = (   0.3392292   0.0000000   0.4707874  )
         3           Fe  tau(   3) = (   0.4999998   0.2954206   0.0000000  )
         4           Fe  tau(   4) = (  -0.1607707   0.2954206   0.4707874  )
         5           O   tau(   5) = (   0.6897287   0.0000000   0.2369702  )
         6           O   tau(   6) = (  -0.0112704   0.0000000   0.7046043  )
         7           O   tau(   7) = (   0.1897289   0.2954206   0.2369702  )
         8           O   tau(   8) = (   0.4887294   0.2954206   0.7046043  )

   Crystallographic axes

     site n.     atom                  positions (cryst. coord.)
         1           Fe  tau(   1) = (  0.0000000  0.0000000  0.0000000  )
         2           Fe  tau(   2) = (  0.5000026  0.0000000  0.5000013  )
         3           Fe  tau(   3) = (  0.4999998  0.5000000  0.0000000  )
         4           Fe  tau(   4) = (  0.0000028  0.5000000  0.5000013  )
         5           O   tau(   5) = (  0.7706538  0.0000000  0.2516750  )
         6           O   tau(   6) = (  0.2293513  0.0000000  0.7483273  )
         7           O   tau(   7) = (  0.2706540  0.5000000  0.2516750  )
         8           O   tau(   8) = (  0.7293511  0.5000000  0.7483273  )

     number of k points=    12  Marzari-Vanderbilt smearing, width (Ry)=  0.0100
                       cart. coord. in units 2pi/alat
        k(    1) = (   0.0000000   0.0000000   0.0000000), wk =   0.0625000
        k(    2) = (   0.0000000   0.0000000  -0.5310266), wk =   0.0625000
        k(    3) = (   0.0000000   0.4231256   0.0000000), wk =   0.1250000
        k(    4) = (   0.0000000   0.4231256  -0.5310266), wk =   0.1250000
        k(    5) = (   0.0000000  -0.8462511   0.0000000), wk =   0.0625000
        k(    6) = (   0.0000000  -0.8462511  -0.5310266), wk =   0.0625000
        k(    7) = (  -0.5000000   0.0000000  -0.1707495), wk =   0.0625000
        k(    8) = (  -0.5000000   0.0000000  -0.7017761), wk =   0.0625000
        k(    9) = (  -0.5000000   0.4231256  -0.1707495), wk =   0.1250000
        k(   10) = (  -0.5000000   0.4231256  -0.7017761), wk =   0.1250000
        k(   11) = (  -0.5000000  -0.8462511  -0.1707495), wk =   0.0625000
        k(   12) = (  -0.5000000  -0.8462511  -0.7017761), wk =   0.0625000

                       cryst. coord.
        k(    1) = (   0.0000000   0.0000000   0.0000000), wk =   0.0625000
        k(    2) = (   0.0000000   0.0000000  -0.5000000), wk =   0.0625000
        k(    3) = (   0.0000000   0.2500000   0.0000000), wk =   0.1250000
        k(    4) = (   0.0000000   0.2500000  -0.5000000), wk =   0.1250000
        k(    5) = (   0.0000000  -0.5000000   0.0000000), wk =   0.0625000
        k(    6) = (   0.0000000  -0.5000000  -0.5000000), wk =   0.0625000
        k(    7) = (  -0.5000000   0.0000000  -0.0000000), wk =   0.0625000
        k(    8) = (  -0.5000000   0.0000000  -0.5000000), wk =   0.0625000
        k(    9) = (  -0.5000000   0.2500000  -0.0000000), wk =   0.1250000
        k(   10) = (  -0.5000000   0.2500000  -0.5000000), wk =   0.1250000
        k(   11) = (  -0.5000000  -0.5000000  -0.0000000), wk =   0.0625000
        k(   12) = (  -0.5000000  -0.5000000  -0.5000000), wk =   0.0625000

     Dense  grid:    54131 G-vectors     FFT dimensions: (  60,  36,  60)

     Smooth grid:    16021 G-vectors     FFT dimensions: (  40,  24,  40)

     Estimated max dynamical RAM per process >      23.31MB

     Estimated total allocated dynamical RAM >     116.55MB
     Generating pointlists ...
     new r_m :   0.1610 (alat units)  1.6269 (a.u.) for type    1
     new r_m :   0.1610 (alat units)  1.6269 (a.u.) for type    2

     Check: negative/imaginary core charge=   -0.000230    0.000000

     Initial potential from superposition of free atoms

     starting charge   87.99860, renormalised to   88.00000
     Starting wfc are   68 randomized atomic wfcs
     Checking if some PAW data can be deallocated... 
       node    0, deallocated PAW data for type:  2
       node    1, deallocated PAW data for type:  2
       node    2, deallocated PAW data for type:  1
       node    3, deallocated PAW data for type:  1
       node    4, deallocated PAW data for type:  1

     total cpu time spent up to now is        6.6 secs

     Self-consistent Calculation

     iteration #  1     ecut=    35.00 Ry     beta=0.40
     Davidson diagonalization with overlap
     ethr =  1.00E-02,  avg # of iterations =  2.0

     negative rho (up, down):  0.000E+00 5.222E-04

     total cpu time spent up to now is       13.7 secs

     total energy              =   -1460.59757653 Ry
     Harris-Foulkes estimate   =   -1461.17159572 Ry
     estimated scf accuracy    <       1.25314870 Ry

     total magnetization       =    16.03 Bohr mag/cell
     absolute magnetization    =    16.03 Bohr mag/cell

     iteration #  2     ecut=    35.00 Ry     beta=0.40
     Davidson diagonalization with overlap
     ethr =  1.42E-03,  avg # of iterations =  2.2

     negative rho (up, down):  0.000E+00 6.553E-04

     total cpu time spent up to now is       21.8 secs

     total energy              =   -1460.69299728 Ry
     Harris-Foulkes estimate   =   -1461.17234332 Ry
     estimated scf accuracy    <       1.57623059 Ry

     total magnetization       =    12.26 Bohr mag/cell
     absolute magnetization    =    12.27 Bohr mag/cell

     iteration #  3     ecut=    35.00 Ry     beta=0.40
     Davidson diagonalization with overlap
     ethr =  1.42E-03,  avg # of iterations =  2.0

     negative rho (up, down):  0.000E+00 8.064E-04

     total cpu time spent up to now is       29.4 secs

     total energy              =   -1460.96647162 Ry
     Harris-Foulkes estimate   =   -1461.02807146 Ry
     estimated scf accuracy    <       0.36319640 Ry

     total magnetization       =    15.59 Bohr mag/cell
     absolute magnetization    =    15.59 Bohr mag/cell

     iteration #  4     ecut=    35.00 Ry     beta=0.40
     Davidson diagonalization with overlap
     ethr =  4.13E-04,  avg # of iterations =  2.1

     negative rho (up, down):  0.000E+00 1.132E-03

     total cpu time spent up to now is       36.5 secs

     total energy              =   -1460.94483969 Ry
     Harris-Foulkes estimate   =   -1461.09750034 Ry
     estimated scf accuracy    <       2.19824496 Ry

     total magnetization       =    14.88 Bohr mag/cell
     absolute magnetization    =    14.89 Bohr mag/cell

     iteration #  5     ecut=    35.00 Ry     beta=0.40
     Davidson diagonalization with overlap
     ethr =  4.13E-04,  avg # of iterations =  1.1

     negative rho (up, down):  0.000E+00 1.179E-03

     total cpu time spent up to now is       42.8 secs

     total energy              =   -1460.98188505 Ry
     Harris-Foulkes estimate   =   -1461.04824150 Ry
     estimated scf accuracy    <       1.15277695 Ry

     total magnetization       =    15.18 Bohr mag/cell
     absolute magnetization    =    15.19 Bohr mag/cell

     iteration #  6     ecut=    35.00 Ry     beta=0.40
     Davidson diagonalization with overlap
     ethr =  4.13E-04,  avg # of iterations =  1.0

     negative rho (up, down):  0.000E+00 1.963E-03

     total cpu time spent up to now is       49.0 secs

     total energy              =   -1461.01729681 Ry
     Harris-Foulkes estimate   =   -1461.01490334 Ry
     estimated scf accuracy    <       0.03353738 Ry

     total magnetization       =    15.62 Bohr mag/cell
     absolute magnetization    =    15.62 Bohr mag/cell

     iteration #  7     ecut=    35.00 Ry     beta=0.40
     Davidson diagonalization with overlap
     ethr =  3.81E-05,  avg # of iterations =  2.1

     negative rho (up, down):  0.000E+00 2.067E-03

     total cpu time spent up to now is       56.6 secs

     total energy              =   -1461.01227559 Ry
     Harris-Foulkes estimate   =   -1461.02920602 Ry
     estimated scf accuracy    <       0.26445366 Ry

     total magnetization       =    15.73 Bohr mag/cell
     absolute magnetization    =    15.74 Bohr mag/cell

     iteration #  8     ecut=    35.00 Ry     beta=0.40
     Davidson diagonalization with overlap
     ethr =  3.81E-05,  avg # of iterations =  1.4

     negative rho (up, down):  0.000E+00 2.201E-03

     total cpu time spent up to now is       63.1 secs

     total energy              =   -1461.02228183 Ry
     Harris-Foulkes estimate   =   -1461.02288702 Ry
     estimated scf accuracy    <       0.02507686 Ry

     total magnetization       =    15.83 Bohr mag/cell
     absolute magnetization    =    15.83 Bohr mag/cell

     iteration #  9     ecut=    35.00 Ry     beta=0.40
     Davidson diagonalization with overlap
     ethr =  2.85E-05,  avg # of iterations =  1.1

     negative rho (up, down):  0.000E+00 2.225E-03

     total cpu time spent up to now is       69.5 secs

     total energy              =   -1461.02453639 Ry
     Harris-Foulkes estimate   =   -1461.02390302 Ry
     estimated scf accuracy    <       0.00671523 Ry

     total magnetization       =    15.99 Bohr mag/cell
     absolute magnetization    =    16.01 Bohr mag/cell

     iteration # 10     ecut=    35.00 Ry     beta=0.40
     Davidson diagonalization with overlap
     ethr =  7.63E-06,  avg # of iterations =  1.2

     negative rho (up, down):  0.000E+00 2.257E-03

     total cpu time spent up to now is       75.9 secs

     total energy              =   -1461.02436720 Ry
     Harris-Foulkes estimate   =   -1461.02472095 Ry
     estimated scf accuracy    <       0.00435571 Ry

     total magnetization       =    16.04 Bohr mag/cell
     absolute magnetization    =    16.06 Bohr mag/cell

     iteration # 11     ecut=    35.00 Ry     beta=0.40
     Davidson diagonalization with overlap
     ethr =  4.95E-06,  avg # of iterations =  1.0

     negative rho (up, down):  0.000E+00 2.276E-03

     total cpu time spent up to now is       82.1 secs

     total energy              =   -1461.02448220 Ry
     Harris-Foulkes estimate   =   -1461.02453858 Ry
     estimated scf accuracy    <       0.00061932 Ry

     total magnetization       =    16.04 Bohr mag/cell
     absolute magnetization    =    16.06 Bohr mag/cell

     iteration # 12     ecut=    35.00 Ry     beta=0.40
     Davidson diagonalization with overlap
     ethr =  7.04E-07,  avg # of iterations =  2.3

     negative rho (up, down):  0.000E+00 2.264E-03

     total cpu time spent up to now is       89.8 secs

     total energy              =   -1461.02456565 Ry
     Harris-Foulkes estimate   =   -1461.02457166 Ry
     estimated scf accuracy    <       0.00017731 Ry

     total magnetization       =    16.04 Bohr mag/cell
     absolute magnetization    =    16.06 Bohr mag/cell

     iteration # 13     ecut=    35.00 Ry     beta=0.40
     Davidson diagonalization with overlap
     ethr =  2.01E-07,  avg # of iterations =  1.0

     negative rho (up, down):  0.000E+00 2.259E-03

     total cpu time spent up to now is       96.1 secs

     total energy              =   -1461.02457274 Ry
     Harris-Foulkes estimate   =   -1461.02457178 Ry
     estimated scf accuracy    <       0.00001238 Ry

     total magnetization       =    16.04 Bohr mag/cell
     absolute magnetization    =    16.06 Bohr mag/cell

     iteration # 14     ecut=    35.00 Ry     beta=0.40
     Davidson diagonalization with overlap
     ethr =  1.41E-08,  avg # of iterations =  2.3

     negative rho (up, down):  0.000E+00 2.256E-03

     total cpu time spent up to now is      103.5 secs

     total energy              =   -1461.02457412 Ry
     Harris-Foulkes estimate   =   -1461.02457375 Ry
     estimated scf accuracy    <       0.00000175 Ry

     total magnetization       =    16.04 Bohr mag/cell
     absolute magnetization    =    16.06 Bohr mag/cell

     iteration # 15     ecut=    35.00 Ry     beta=0.40
     Davidson diagonalization with overlap
     ethr =  1.98E-09,  avg # of iterations =  2.9

     negative rho (up, down):  0.000E+00 2.254E-03

     Magnetic moment per site:
     atom:    1    charge:   13.4144    magn:    3.3425    constr:    0.0000
     atom:    2    charge:   13.4106    magn:    3.3581    constr:    0.0000
     atom:    3    charge:   13.4146    magn:    3.3424    constr:    0.0000
     atom:    4    charge:   13.4106    magn:    3.3581    constr:    0.0000
     atom:    5    charge:    5.6111    magn:    0.3790    constr:    0.0000
     atom:    6    charge:    5.6111    magn:    0.3790    constr:    0.0000
     atom:    7    charge:    5.6112    magn:    0.3789    constr:    0.0000
     atom:    8    charge:    5.6112    magn:    0.3789    constr:    0.0000

     total cpu time spent up to now is      112.0 secs

     End of self-consistent calculation

 ------ SPIN UP ------------


          k = 0.0000 0.0000 0.0000 (  2005 PWs)   bands (ev):

   -76.3999 -76.3946 -76.3785 -76.3749 -42.6553 -42.6175 -42.5907 -42.5780
   -42.5743 -42.5368 -42.5363 -42.5203 -42.5083 -42.4810 -42.4770 -42.4742
    -7.1266  -6.0496  -5.9506  -5.9399   4.6207   4.6534   6.2944   6.5178
     6.5245   6.5307   6.5447   8.2188   8.3006   8.4004   8.9880   9.0529
     9.1516   9.2635   9.2639   9.2871   9.3005   9.4370   9.6522   9.7710
     9.7916   9.8310   9.8339  10.0051  10.0171  10.0601  10.3874  10.4212
    12.3245  12.4107  12.4122  12.4914  13.0166

     occupation numbers 
     1.0000   1.0000   1.0000   1.0000   1.0000   1.0000   1.0000   1.0000
     1.0000   1.0000   1.0000   1.0000   1.0000   1.0000   1.0000   1.0000
     1.0000   1.0000   1.0000   1.0000   1.0000   1.0000   1.0000   1.0000
     1.0000   1.0000   1.0000   1.0000   1.0000   1.0000   1.0000   1.0000
     1.0000   1.0000   1.0000   1.0000   1.0000   1.0000   1.0000   1.0000
     1.0000   1.0000   1.0000   1.0000   1.0000   1.0000   1.0000   1.0000
     1.0211   1.0737   1.0745   1.0395   0.0000

          k = 0.0000 0.0000-0.5310 (  2014 PWs)   bands (ev):

   -76.3985 -76.3958 -76.3789 -76.3762 -42.6204 -42.6165 -42.5887 -42.5874
   -42.5726 -42.5474 -42.5277 -42.5255 -42.5177 -42.4987 -42.4981 -42.4895
    -6.5879  -6.5650  -6.0747  -5.9305   5.4922   5.7884   6.3943   6.4127
     6.5601   6.9471   6.9662   7.1988   7.2519   7.2791   7.3889   7.3955
     9.2814   9.3406   9.3726   9.4297   9.4453   9.4911   9.8295   9.8451
     9.8525   9.8826  10.1795  10.2441  11.0758  11.0792  11.1733  11.2742
    11.3354  11.4539  11.6701  11.6786  15.6844

     occupation numbers 
     1.0000   1.0000   1.0000   1.0000   1.0000   1.0000   1.0000   1.0000
     1.0000   1.0000   1.0000   1.0000   1.0000   1.0000   1.0000   1.0000
     1.0000   1.0000   1.0000   1.0000   1.0000   1.0000   1.0000   1.0000
     1.0000   1.0000   1.0000   1.0000   1.0000   1.0000   1.0000   1.0000
     1.0000   1.0000   1.0000   1.0000   1.0000   1.0000   1.0000   1.0000
     1.0000   1.0000   1.0000   1.0000   1.0000   1.0000   1.0000   1.0000
     1.0000   1.0000   1.0000   1.0000   0.0000

          k = 0.0000 0.4231 0.0000 (  2009 PWs)   bands (ev):

   -76.3973 -76.3954 -76.3774 -76.3758 -42.6274 -42.6167 -42.5909 -42.5829
   -42.5599 -42.5579 -42.5305 -42.5230 -42.5005 -42.4982 -42.4942 -42.4880
    -6.7718  -5.9799  -5.9364  -5.9309   5.3000   5.3305   6.3716   6.4170
     6.5577   6.5776   6.6632   6.7023   7.0170   7.4004   7.6232   8.0080
     9.2149   9.2714   9.4601   9.6413   9.6542   9.8202   9.8361   9.8953
     9.9964  10.0507  10.1667  10.2886  10.3264  10.3877  11.0466  11.1054
    11.3202  11.4826  11.9562  11.9665  15.0284

     occupation numbers 
     1.0000   1.0000   1.0000   1.0000   1.0000   1.0000   1.0000   1.0000
     1.0000   1.0000   1.0000   1.0000   1.0000   1.0000   1.0000   1.0000
     1.0000   1.0000   1.0000   1.0000   1.0000   1.0000   1.0000   1.0000
     1.0000   1.0000   1.0000   1.0000   1.0000   1.0000   1.0000   1.0000
     1.0000   1.0000   1.0000   1.0000   1.0000   1.0000   1.0000   1.0000
     1.0000   1.0000   1.0000   1.0000   1.0000   1.0000   1.0000   1.0000
     1.0000   1.0000   1.0000   1.0000   0.0000

          k = 0.0000 0.4231-0.5310 (  2008 PWs)   bands (ev):

   -76.3974 -76.3956 -76.3778 -76.3760 -42.6257 -42.6216 -42.5841 -42.5823
   -42.5547 -42.5519 -42.5388 -42.5297 -42.5036 -42.4952 -42.4938 -42.4911
    -6.3751  -6.3662  -5.9981  -5.9229   5.6515   5.8322   5.9024   5.9288
     6.5442   6.6927   6.9305   6.9630   7.0475   7.3231   7.5011   7.6982
     9.2425   9.3111   9.6060   9.6380   9.6631   9.6821   9.7396   9.7777
    10.1651  10.2535  10.2936  10.3408  10.3425  10.3715  10.3825  10.4677
    11.4670  11.4839  11.9992  12.0144  17.0080

     occupation numbers 
     1.0000   1.0000   1.0000   1.0000   1.0000   1.0000   1.0000   1.0000
     1.0000   1.0000   1.0000   1.0000   1.0000   1.0000   1.0000   1.0000
     1.0000   1.0000   1.0000   1.0000   1.0000   1.0000   1.0000   1.0000
     1.0000   1.0000   1.0000   1.0000   1.0000   1.0000   1.0000   1.0000
     1.0000   1.0000   1.0000   1.0000   1.0000   1.0000   1.0000   1.0000
     1.0000   1.0000   1.0000   1.0000   1.0000   1.0000   1.0000   1.0000
     1.0000   1.0000   1.0000   1.0000   0.0000

          k = 0.0000-0.8463 0.0000 (  2008 PWs)   bands (ev):

   -76.3959 -76.3958 -76.3764 -76.3762 -42.6307 -42.6306 -42.5818 -42.5815
   -42.5663 -42.5662 -42.5291 -42.5290 -42.4990 -42.4988 -42.4903 -42.4902
    -6.1529  -6.1526  -5.9252  -5.9249   5.5118   5.5120   6.4562   6.4564
     6.6046   6.6048   6.6154   6.6156   6.9241   6.9242   7.0082   7.0084
     9.5680   9.5680   9.7313   9.7313   9.8833   9.8833   9.9777   9.9778
     9.9864   9.9865  10.0626  10.0626  10.3605  10.3606  10.4350  10.4350
    11.2115  11.2116  12.2265  12.2267  18.2853

     occupation numbers 
     1.0000   1.0000   1.0000   1.0000   1.0000   1.0000   1.0000   1.0000
     1.0000   1.0000   1.0000   1.0000   1.0000   1.0000   1.0000   1.0000
     1.0000   1.0000   1.0000   1.0000   1.0000   1.0000   1.0000   1.0000
     1.0000   1.0000   1.0000   1.0000   1.0000   1.0000   1.0000   1.0000
     1.0000   1.0000   1.0000   1.0000   1.0000   1.0000   1.0000   1.0000
     1.0000   1.0000   1.0000   1.0000   1.0000   1.0000   1.0000   1.0000
     1.0000   1.0000   1.0015   1.0015   0.0000

          k = 0.0000-0.8463-0.5310 (  2004 PWs)   bands (ev):

   -76.3958 -76.3957 -76.3762 -76.3761 -42.6264 -42.6263 -42.5823 -42.5820
   -42.5462 -42.5461 -42.5404 -42.5402 -42.4962 -42.4961 -42.4909 -42.4908
    -6.0464  -6.0461  -6.0236  -6.0233   5.5660   5.5661   5.7395   5.7396
     6.6190   6.6192   6.7852   6.7854   7.1287   7.1288   7.3100   7.3102
     9.2569   9.2569   9.3484   9.3485   9.8426   9.8428   9.9123   9.9124
    10.1743  10.1743  10.2152  10.2153  10.9058  10.9058  11.1524  11.1525
    11.2550  11.2552  11.5596  11.5598  18.9106

     occupation numbers 
     1.0000   1.0000   1.0000   1.0000   1.0000   1.0000   1.0000   1.0000
     1.0000   1.0000   1.0000   1.0000   1.0000   1.0000   1.0000   1.0000
     1.0000   1.0000   1.0000   1.0000   1.0000   1.0000   1.0000   1.0000
     1.0000   1.0000   1.0000   1.0000   1.0000   1.0000   1.0000   1.0000
     1.0000   1.0000   1.0000   1.0000   1.0000   1.0000   1.0000   1.0000
     1.0000   1.0000   1.0000   1.0000   1.0000   1.0000   1.0000   1.0000
     1.0000   1.0000   1.0000   1.0000   0.0000

          k =-0.5000 0.0000-0.1707 (  2012 PWs)   bands (ev):

   -76.3972 -76.3971 -76.3775 -76.3774 -42.6198 -42.6197 -42.5883 -42.5880
   -42.5561 -42.5560 -42.5329 -42.5329 -42.4984 -42.4983 -42.4942 -42.4941
    -6.5944  -6.5943  -5.9825  -5.9823   5.6186   5.6188   6.4028   6.4029
     6.7357   6.7358   6.9791   6.9793   7.3718   7.3719   7.4411   7.4413
     9.2852   9.2853   9.3861   9.3861   9.4937   9.4938   9.8367   9.8368
     9.8775   9.8776  10.2111  10.2111  11.0122  11.0123  11.1280  11.1280
    11.5702  11.5702  11.6533  11.6535  15.6568

     occupation numbers 
     1.0000   1.0000   1.0000   1.0000   1.0000   1.0000   1.0000   1.0000
     1.0000   1.0000   1.0000   1.0000   1.0000   1.0000   1.0000   1.0000
     1.0000   1.0000   1.0000   1.0000   1.0000   1.0000   1.0000   1.0000
     1.0000   1.0000   1.0000   1.0000   1.0000   1.0000   1.0000   1.0000
     1.0000   1.0000   1.0000   1.0000   1.0000   1.0000   1.0000   1.0000
     1.0000   1.0000   1.0000   1.0000   1.0000   1.0000   1.0000   1.0000
     1.0000   1.0000   1.0000   1.0000   0.0000

          k =-0.5000 0.0000-0.7018 (  2006 PWs)   bands (ev):

   -76.3969 -76.3968 -76.3773 -76.3772 -42.6174 -42.6173 -42.5813 -42.5811
   -42.5542 -42.5542 -42.5246 -42.5245 -42.4984 -42.4983 -42.4906 -42.4904
    -6.4797  -6.4794  -6.1054  -6.1051   5.5281   5.5283   5.9484   5.9486
     6.7040   6.7042   7.0502   7.0504   8.0809   8.0812   8.2244   8.2246
     8.7217   8.7218   9.4549   9.4549   9.5457   9.5457   9.8065   9.8065
    10.2815  10.2816  10.3085  10.3087  10.3706  10.3707  10.5061  10.5062
    10.6806  10.6807  12.2934  12.2936  16.7610

     occupation numbers 
     1.0000   1.0000   1.0000   1.0000   1.0000   1.0000   1.0000   1.0000
     1.0000   1.0000   1.0000   1.0000   1.0000   1.0000   1.0000   1.0000
     1.0000   1.0000   1.0000   1.0000   1.0000   1.0000   1.0000   1.0000
     1.0000   1.0000   1.0000   1.0000   1.0000   1.0000   1.0000   1.0000
     1.0000   1.0000   1.0000   1.0000   1.0000   1.0000   1.0000   1.0000
     1.0000   1.0000   1.0000   1.0000   1.0000   1.0000   1.0000   1.0000
     1.0000   1.0000   1.0104   1.0105   0.0000

          k =-0.5000 0.4231-0.1707 (  2006 PWs)   bands (ev):

   -76.3965 -76.3963 -76.3768 -76.3767 -42.6165 -42.6165 -42.5834 -42.5831
   -42.5603 -42.5603 -42.5246 -42.5246 -42.5019 -42.5018 -42.4925 -42.4924
    -6.3852  -6.3850  -5.9444  -5.9442   5.7704   5.7705   5.8849   5.8850
     6.6918   6.6919   6.8069   6.8069   7.1961   7.1962   7.6637   7.6637
     9.2781   9.2782   9.6045   9.6046   9.6987   9.6987   9.7382   9.7382
    10.1931  10.1932  10.2715  10.2715  10.3400  10.3401  10.5090  10.5090
    11.4838  11.4838  12.0008  12.0008  17.0233

     occupation numbers 
     1.0000   1.0000   1.0000   1.0000   1.0000   1.0000   1.0000   1.0000
     1.0000   1.0000   1.0000   1.0000   1.0000   1.0000   1.0000   1.0000
     1.0000   1.0000   1.0000   1.0000   1.0000   1.0000   1.0000   1.0000
     1.0000   1.0000   1.0000   1.0000   1.0000   1.0000   1.0000   1.0000
     1.0000   1.0000   1.0000   1.0000   1.0000   1.0000   1.0000   1.0000
     1.0000   1.0000   1.0000   1.0000   1.0000   1.0000   1.0000   1.0000
     1.0000   1.0000   1.0000   1.0000   0.0000

          k =-0.5000 0.4231-0.7018 (  2002 PWs)   bands (ev):

   -76.3965 -76.3963 -76.3768 -76.3767 -42.6215 -42.6214 -42.5857 -42.5855
   -42.5563 -42.5563 -42.5218 -42.5218 -42.4952 -42.4952 -42.4922 -42.4922
    -6.2480  -6.2477  -6.0841  -6.0838   5.4247   5.4248   5.8735   5.8736
     6.8304   6.8305   7.1554   7.1556   7.3206   7.3206   7.4862   7.4863
     9.1653   9.1653   9.3825   9.3826   9.7399   9.7399   9.8564   9.8564
    10.1512  10.1513  10.1717  10.1717  10.3395  10.3396  11.0521  11.0522
    11.4924  11.4927  11.8888  11.8888  17.3341

     occupation numbers 
     1.0000   1.0000   1.0000   1.0000   1.0000   1.0000   1.0000   1.0000
     1.0000   1.0000   1.0000   1.0000   1.0000   1.0000   1.0000   1.0000
     1.0000   1.0000   1.0000   1.0000   1.0000   1.0000   1.0000   1.0000
     1.0000   1.0000   1.0000   1.0000   1.0000   1.0000   1.0000   1.0000
     1.0000   1.0000   1.0000   1.0000   1.0000   1.0000   1.0000   1.0000
     1.0000   1.0000   1.0000   1.0000   1.0000   1.0000   1.0000   1.0000
     1.0000   1.0000   1.0000   1.0000   0.0000

          k =-0.5000-0.8463-0.1707 (  2004 PWs)   bands (ev):

   -76.3956 -76.3955 -76.3761 -76.3760 -42.6112 -42.6111 -42.5822 -42.5819
   -42.5659 -42.5659 -42.5178 -42.5178 -42.5089 -42.5087 -42.4910 -42.4908
    -6.0821  -6.0818  -5.9875  -5.9872   5.5747   5.5748   5.7501   5.7501
     6.6121   6.6123   6.8142   6.8144   7.0832   7.0833   7.2886   7.2887
     9.2673   9.2674   9.3459   9.3459   9.8406   9.8408   9.8818   9.8819
    10.1696  10.1697  10.2543  10.2543  10.9770  10.9771  11.1376  11.1377
    11.2958  11.2959  11.4755  11.4756  18.7833

     occupation numbers 
     1.0000   1.0000   1.0000   1.0000   1.0000   1.0000   1.0000   1.0000
     1.0000   1.0000   1.0000   1.0000   1.0000   1.0000   1.0000   1.0000
     1.0000   1.0000   1.0000   1.0000   1.0000   1.0000   1.0000   1.0000
     1.0000   1.0000   1.0000   1.0000   1.0000   1.0000   1.0000   1.0000
     1.0000   1.0000   1.0000   1.0000   1.0000   1.0000   1.0000   1.0000
     1.0000   1.0000   1.0000   1.0000   1.0000   1.0000   1.0000   1.0000
     1.0000   1.0000   1.0000   1.0000   0.0000

          k =-0.5000-0.8463-0.7018 (  1968 PWs)   bands (ev):

   -76.3949 -76.3948 -76.3752 -76.3751 -42.6026 -42.6024 -42.5811 -42.5808
   -42.5356 -42.5356 -42.5064 -42.5064 -42.4908 -42.4907 -42.4725 -42.4724
    -6.0685  -6.0682  -5.9921  -5.9918   4.5957   4.5958   6.2313   6.2313
     6.5251   6.5252   6.6877   6.6879   8.2652   8.2652   8.3430   8.3433
     8.4412   8.4412   9.5847   9.5848   9.7490   9.7491   9.8078   9.8078
    10.0286  10.0286  10.0419  10.0419  10.0659  10.0659  10.3627  10.3628
    12.3502  12.3504  12.4992  12.4993  17.5747

     occupation numbers 
     1.0000   1.0000   1.0000   1.0000   1.0000   1.0000   1.0000   1.0000
     1.0000   1.0000   1.0000   1.0000   1.0000   1.0000   1.0000   1.0000
     1.0000   1.0000   1.0000   1.0000   1.0000   1.0000   1.0000   1.0000
     1.0000   1.0000   1.0000   1.0000   1.0000   1.0000   1.0000   1.0000
     1.0000   1.0000   1.0000   1.0000   1.0000   1.0000   1.0000   1.0000
     1.0000   1.0000   1.0000   1.0000   1.0000   1.0000   1.0000   1.0000
     1.0343   1.0344   1.0230   1.0227   0.0000

 ------ SPIN DOWN ----------


          k = 0.0000 0.0000 0.0000 (  2005 PWs)   bands (ev):

   -72.5622 -72.5529 -72.5525 -72.5518 -38.9310 -38.8981 -38.8949 -38.8874
   -38.8848 -38.8710 -38.8647 -38.8574 -38.8380 -38.8335 -38.8321 -38.8316
    -6.5143  -5.3869  -5.3150  -5.3044   5.4131   5.4460   6.8485   7.9626
     7.9658   7.9714   7.9859   8.8497   9.0294   9.9249   9.9571  10.0926
    10.7696  11.9081  11.9820  12.0296  12.5493  12.6076  12.9754  12.9861
    12.9959  13.0233  13.1563  13.2261  13.2995  13.3038  13.3206  13.4919
    13.5093  15.1301  15.1347  15.1934  15.3145

     occupation numbers 
     1.0000   1.0000   1.0000   1.0000   1.0000   1.0000   1.0000   1.0000
     1.0000   1.0000   1.0000   1.0000   1.0000   1.0000   1.0000   1.0000
     1.0000   1.0000   1.0000   1.0000   1.0000   1.0000   1.0000   1.0000
     1.0000   1.0000   1.0000   1.0000   1.0000   1.0000   1.0000   1.0000
     1.0000   1.0000   1.0000   1.0000   0.8464   0.5384   0.0000   0.0000
     0.0000   0.0000   0.0000   0.0000   0.0000   0.0000   0.0000   0.0000
     0.0000   0.0000   0.0000   0.0000   0.0000

          k = 0.0000 0.0000-0.5310 (  2014 PWs)   bands (ev):

   -72.5571 -72.5567 -72.5538 -72.5533 -38.8947 -38.8887 -38.8846 -38.8817
   -38.8756 -38.8695 -38.8681 -38.8667 -38.8657 -38.8645 -38.8509 -38.8497
    -5.9657  -5.9420  -5.4287  -5.2783   6.2420   6.5841   7.2468   7.2636
     7.6159   8.1065   8.2217   8.4806   8.6487   8.6928   8.7853   8.7904
    11.9085  12.1899  12.3688  12.4199  12.4943  12.5054  12.5669  12.5747
    13.1124  13.1609  13.2333  13.2492  13.8158  13.8908  13.9721  14.0741
    14.1938  14.2064  14.3083  14.3128  16.4602

     occupation numbers 
     1.0000   1.0000   1.0000   1.0000   1.0000   1.0000   1.0000   1.0000
     1.0000   1.0000   1.0000   1.0000   1.0000   1.0000   1.0000   1.0000
     1.0000   1.0000   1.0000   1.0000   1.0000   1.0000   1.0000   1.0000
     1.0000   1.0000   1.0000   1.0000   1.0000   1.0000   1.0000   1.0000
     1.0000   1.0004   1.0461   1.0783   1.0337   1.0076   0.7600   0.7186
     0.0000   0.0000   0.0000   0.0000   0.0000   0.0000   0.0000   0.0000
     0.0000   0.0000   0.0000   0.0000   0.0000

          k = 0.0000 0.4231 0.0000 (  2009 PWs)   bands (ev):

   -72.5577 -72.5533 -72.5531 -72.5529 -38.9101 -38.8856 -38.8812 -38.8792
   -38.8750 -38.8738 -38.8722 -38.8656 -38.8569 -38.8531 -38.8517 -38.8488
    -6.1522  -5.3228  -5.2901  -5.2847   6.1023   6.1321   7.1155   7.2580
     7.6759   7.7100   7.8148   8.0214   8.1339   8.5933   9.0841   9.1831
    11.9035  12.1998  12.3498  12.5299  12.7582  12.7747  12.8459  12.8589
    13.0477  13.1221  13.2442  13.2590  13.2770  13.6361  13.8577  13.9992
    14.2365  14.2418  14.6849  14.7716  15.8976

     occupation numbers 
     1.0000   1.0000   1.0000   1.0000   1.0000   1.0000   1.0000   1.0000
     1.0000   1.0000   1.0000   1.0000   1.0000   1.0000   1.0000   1.0000
     1.0000   1.0000   1.0000   1.0000   1.0000   1.0000   1.0000   1.0000
     1.0000   1.0000   1.0000   1.0000   1.0000   1.0000   1.0000   1.0000
     1.0000   1.0006   1.0340   0.9285   0.0394   0.0258   0.0030   0.0019
     0.0000   0.0000   0.0000   0.0000   0.0000   0.0000   0.0000   0.0000
     0.0000   0.0000   0.0000   0.0000   0.0000

          k = 0.0000 0.4231-0.5310 (  2008 PWs)   bands (ev):

   -72.5557 -72.5553 -72.5535 -72.5531 -38.8994 -38.8956 -38.8868 -38.8834
   -38.8676 -38.8665 -38.8658 -38.8653 -38.8630 -38.8579 -38.8536 -38.8505
    -5.7422  -5.7360  -5.3500  -5.2678   6.4815   6.7703   6.7995   6.8066
     7.3935   7.6578   8.1405   8.1736   8.3898   8.6096   8.6347   8.8304
    12.0120  12.0239  12.5386  12.6908  12.7572  12.7620  12.8385  12.9507
    13.0060  13.0761  13.1432  13.2742  13.2808  13.3034  13.5070  13.6340
    14.1108  14.4245  14.7544  14.8228  17.9232

     occupation numbers 
     1.0000   1.0000   1.0000   1.0000   1.0000   1.0000   1.0000   1.0000
     1.0000   1.0000   1.0000   1.0000   1.0000   1.0000   1.0000   1.0000
     1.0000   1.0000   1.0000   1.0000   1.0000   1.0000   1.0000   1.0000
     1.0000   1.0000   1.0000   1.0000   1.0000   1.0000   1.0000   1.0000
     1.0000   1.0000   0.8936   0.1673   0.0405   0.0359   0.0038   0.0000
     0.0000   0.0000   0.0000   0.0000   0.0000   0.0000   0.0000   0.0000
     0.0000   0.0000   0.0000   0.0000   0.0000

          k = 0.0000-0.8463 0.0000 (  2008 PWs)   bands (ev):

   -72.5546 -72.5545 -72.5529 -72.5529 -38.9024 -38.9023 -38.8900 -38.8899
   -38.8686 -38.8686 -38.8654 -38.8653 -38.8620 -38.8619 -38.8543 -38.8542
    -5.5140  -5.5137  -5.2680  -5.2676   6.3835   6.3837   7.4223   7.4225
     7.4454   7.4456   7.5792   7.5795   7.9634   7.9636   8.3346   8.3349
    12.6176  12.6176  12.7637  12.7638  12.7834  12.7835  12.9102  12.9102
    12.9426  12.9426  13.2615  13.2615  13.3672  13.3673  13.4632  13.4632
    14.2137  14.2138  15.0008  15.0010  19.0988

     occupation numbers 
     1.0000   1.0000   1.0000   1.0000   1.0000   1.0000   1.0000   1.0000
     1.0000   1.0000   1.0000   1.0000   1.0000   1.0000   1.0000   1.0000
     1.0000   1.0000   1.0000   1.0000   1.0000   1.0000   1.0000   1.0000
     1.0000   1.0000   1.0000   1.0000   1.0000   1.0000   1.0000   1.0000
     0.4840   0.4836   0.0344   0.0343   0.0204   0.0204   0.0003   0.0003
     0.0001   0.0001   0.0000   0.0000   0.0000   0.0000   0.0000   0.0000
     0.0000   0.0000   0.0000   0.0000   0.0000

          k = 0.0000-0.8463-0.5310 (  2004 PWs)   bands (ev):

   -72.5537 -72.5537 -72.5534 -72.5533 -38.8971 -38.8970 -38.8915 -38.8914
   -38.8682 -38.8680 -38.8671 -38.8670 -38.8558 -38.8558 -38.8499 -38.8498
    -5.3953  -5.3950  -5.3788  -5.3784   6.3422   6.3423   6.5026   6.5027
     7.7167   7.7170   7.8636   7.8639   8.4286   8.4287   8.5270   8.5272
    12.0088  12.0088  12.1353  12.1354  13.0818  13.0819  13.0820  13.0820
    13.2180  13.2180  13.2492  13.2492  13.8895  13.8896  14.0336  14.0336
    14.2224  14.2226  14.3579  14.3579  19.7363

     occupation numbers 
     1.0000   1.0000   1.0000   1.0000   1.0000   1.0000   1.0000   1.0000
     1.0000   1.0000   1.0000   1.0000   1.0000   1.0000   1.0000   1.0000
     1.0000   1.0000   1.0000   1.0000   1.0000   1.0000   1.0000   1.0000
     1.0000   1.0000   1.0000   1.0000   1.0000   1.0000   1.0000   1.0000
     1.0000   1.0000   1.0000   1.0000   0.0000   0.0000   0.0000   0.0000
     0.0000   0.0000   0.0000   0.0000   0.0000   0.0000   0.0000   0.0000
     0.0000   0.0000   0.0000   0.0000   0.0000

          k =-0.5000 0.0000-0.1707 (  2012 PWs)   bands (ev):

   -72.5567 -72.5567 -72.5537 -72.5537 -38.8964 -38.8964 -38.8829 -38.8829
   -38.8689 -38.8689 -38.8678 -38.8677 -38.8637 -38.8636 -38.8455 -38.8455
    -5.9713  -5.9712  -5.3340  -5.3339   6.4039   6.4040   7.2615   7.2615
     7.8145   7.8146   8.2883   8.2885   8.7758   8.7759   8.7859   8.7861
    12.0059  12.0059  12.4541  12.4541  12.5045  12.5046  12.5400  12.5401
    13.1449  13.1449  13.2260  13.2260  13.8347  13.8348  14.0213  14.0213
    14.2163  14.2163  14.3692  14.3695  16.4374

     occupation numbers 
     1.0000   1.0000   1.0000   1.0000   1.0000   1.0000   1.0000   1.0000
     1.0000   1.0000   1.0000   1.0000   1.0000   1.0000   1.0000   1.0000
     1.0000   1.0000   1.0000   1.0000   1.0000   1.0000   1.0000   1.0000
     1.0000   1.0000   1.0000   1.0000   1.0000   1.0000   1.0000   1.0000
     1.0000   1.0000   1.0809   1.0809   1.0098   1.0098   0.8878   0.8875
     0.0000   0.0000   0.0000   0.0000   0.0000   0.0000   0.0000   0.0000
     0.0000   0.0000   0.0000   0.0000   0.0000

          k =-0.5000 0.0000-0.7018 (  2006 PWs)   bands (ev):

   -72.5557 -72.5556 -72.5542 -72.5542 -38.8909 -38.8908 -38.8805 -38.8805
   -38.8641 -38.8641 -38.8616 -38.8616 -38.8556 -38.8555 -38.8519 -38.8519
    -5.8501  -5.8498  -5.4653  -5.4650   6.4053   6.4056   6.9408   6.9410
     8.0232   8.0235   8.1225   8.1228   9.0872   9.0875   9.2537   9.2540
    11.3747  11.3748  12.6524  12.6524  12.8804  12.8804  12.8990  12.8990
    13.0141  13.0141  13.1054  13.1055  13.1495  13.1496  13.3997  13.3998
    13.5075  13.5075  15.0778  15.0780  17.8796

     occupation numbers 
     1.0000   1.0000   1.0000   1.0000   1.0000   1.0000   1.0000   1.0000
     1.0000   1.0000   1.0000   1.0000   1.0000   1.0000   1.0000   1.0000
     1.0000   1.0000   1.0000   1.0000   1.0000   1.0000   1.0000   1.0000
     1.0000   1.0000   1.0000   1.0000   1.0000   1.0000   1.0000   1.0000
     1.0000   1.0000   0.3111   0.3109   0.0009   0.0009   0.0004   0.0004
     0.0000   0.0000   0.0000   0.0000   0.0000   0.0000   0.0000   0.0000
     0.0000   0.0000   0.0000   0.0000   0.0000

          k =-0.5000 0.4231-0.1707 (  2006 PWs)   bands (ev):

   -72.5554 -72.5554 -72.5533 -72.5532 -38.8928 -38.8928 -38.8798 -38.8797
   -38.8681 -38.8680 -38.8652 -38.8652 -38.8642 -38.8642 -38.8513 -38.8512
    -5.7534  -5.7532  -5.2930  -5.2929   6.6261   6.6262   6.8057   6.8057
     7.5365   7.5366   8.0791   8.0791   8.5108   8.5109   8.7861   8.7862
    12.0104  12.0104  12.6194  12.6195  12.6871  12.6871  12.9598  12.9598
    13.0262  13.0263  13.2029  13.2029  13.3002  13.3003  13.5871  13.5872
    14.2792  14.2792  14.7906  14.7907  17.9388

     occupation numbers 
     1.0000   1.0000   1.0000   1.0000   1.0000   1.0000   1.0000   1.0000
     1.0000   1.0000   1.0000   1.0000   1.0000   1.0000   1.0000   1.0000
     1.0000   1.0000   1.0000   1.0000   1.0000   1.0000   1.0000   1.0000
     1.0000   1.0000   1.0000   1.0000   1.0000   1.0000   1.0000   1.0000
     1.0000   1.0000   0.4739   0.4737   0.1786   0.1785   0.0000   0.0000
     0.0000   0.0000   0.0000   0.0000   0.0000   0.0000   0.0000   0.0000
     0.0000   0.0000   0.0000   0.0000   0.0000

          k =-0.5000 0.4231-0.7018 (  2002 PWs)   bands (ev):

   -72.5552 -72.5551 -72.5535 -72.5534 -38.8925 -38.8925 -38.8855 -38.8854
   -38.8703 -38.8703 -38.8644 -38.8643 -38.8569 -38.8569 -38.8462 -38.8462
    -5.6158  -5.6155  -5.4335  -5.4331   6.2635   6.2636   6.6495   6.6496
     8.1640   8.1641   8.3597   8.3598   8.4314   8.4315   8.6736   8.6738
    11.6667  11.6667  12.2169  12.2169  12.9777  12.9777  13.0338  13.0339
    13.1860  13.1861  13.2617  13.2617  13.4233  13.4233  13.9505  13.9506
    14.2316  14.2318  14.5092  14.5092  18.1861

     occupation numbers 
     1.0000   1.0000   1.0000   1.0000   1.0000   1.0000   1.0000   1.0000
     1.0000   1.0000   1.0000   1.0000   1.0000   1.0000   1.0000   1.0000
     1.0000   1.0000   1.0000   1.0000   1.0000   1.0000   1.0000   1.0000
     1.0000   1.0000   1.0000   1.0000   1.0000   1.0000   1.0000   1.0000
     1.0000   1.0000   1.0011   1.0011   0.0000   0.0000   0.0000   0.0000
     0.0000   0.0000   0.0000   0.0000   0.0000   0.0000   0.0000   0.0000
     0.0000   0.0000   0.0000   0.0000   0.0000

          k =-0.5000-0.8463-0.1707 (  2004 PWs)   bands (ev):

   -72.5537 -72.5536 -72.5533 -72.5532 -38.8893 -38.8893 -38.8766 -38.8766
   -38.8696 -38.8696 -38.8678 -38.8677 -38.8656 -38.8656 -38.8556 -38.8556
    -5.4360  -5.4357  -5.3376  -5.3373   6.3261   6.3262   6.5311   6.5312
     7.6772   7.6774   7.9303   7.9306   8.3566   8.3567   8.5454   8.5455
    12.0054  12.0054  12.1438  12.1438  13.0792  13.0793  13.0805  13.0805
    13.2386  13.2386  13.2451  13.2451  13.9269  13.9269  14.0348  14.0349
    14.1966  14.1968  14.3346  14.3346  19.6480

     occupation numbers 
     1.0000   1.0000   1.0000   1.0000   1.0000   1.0000   1.0000   1.0000
     1.0000   1.0000   1.0000   1.0000   1.0000   1.0000   1.0000   1.0000
     1.0000   1.0000   1.0000   1.0000   1.0000   1.0000   1.0000   1.0000
     1.0000   1.0000   1.0000   1.0000   1.0000   1.0000   1.0000   1.0000
     1.0000   1.0000   1.0001   1.0001   0.0000   0.0000   0.0000   0.0000
     0.0000   0.0000   0.0000   0.0000   0.0000   0.0000   0.0000   0.0000
     0.0000   0.0000   0.0000   0.0000   0.0000

          k =-0.5000-0.8463-0.7018 (  1968 PWs)   bands (ev):

   -72.5540 -72.5540 -72.5512 -72.5512 -38.8908 -38.8907 -38.8680 -38.8679
   -38.8595 -38.8595 -38.8592 -38.8591 -38.8404 -38.8404 -38.8293 -38.8293
    -5.4066  -5.4062  -5.3574  -5.3571   5.3807   5.3807   6.7906   6.7906
     7.9705   7.9706   8.1478   8.1481   8.9584   8.9587   9.0724   9.0724
    10.8101  10.8102  12.8996  12.8996  12.9593  12.9594  13.0278  13.0279
    13.2595  13.2595  13.3143  13.3143  13.3324  13.3324  13.4691  13.4692
    15.0554  15.0556  15.1925  15.1925  18.0453

     occupation numbers 
     1.0000   1.0000   1.0000   1.0000   1.0000   1.0000   1.0000   1.0000
     1.0000   1.0000   1.0000   1.0000   1.0000   1.0000   1.0000   1.0000
     1.0000   1.0000   1.0000   1.0000   1.0000   1.0000   1.0000   1.0000
     1.0000   1.0000   1.0000   1.0000   1.0000   1.0000   1.0000   1.0000
     1.0000   1.0000   0.0004   0.0004   0.0000   0.0000   0.0000   0.0000
     0.0000   0.0000   0.0000   0.0000   0.0000   0.0000   0.0000   0.0000
     0.0000   0.0000   0.0000   0.0000   0.0000

     the Fermi energy is    12.6336 ev

!    total energy              =   -1461.02457452 Ry
     Harris-Foulkes estimate   =   -1461.02457441 Ry
     estimated scf accuracy    <       0.00000007 Ry

     total all-electron energy =    -10762.020359 Ry

     The total energy is the sum of the following terms:

     one-electron contribution =    -552.34729264 Ry
     hartree contribution      =     325.19831023 Ry
     xc contribution           =    -166.80400116 Ry
     ewald contribution        =    -744.67779107 Ry
     one-center paw contrib.   =    -322.39325071 Ry
      -> PAW hartree energy AE =     405.10412413 Ry
      -> PAW hartree energy PS =    -403.44242805 Ry
      -> PAW xc energy AE      =    -212.94510265 Ry
      -> PAW xc energy PS      =      67.45444356 Ry
      -> total E_H with PAW    =     326.86000630 Ry
      -> total E_XC with PAW   =    -312.29466025 Ry
     smearing contrib. (-TS)   =      -0.00054917 Ry

     total magnetization       =    16.04 Bohr mag/cell
     absolute magnetization    =    16.06 Bohr mag/cell

     convergence has been achieved in  15 iterations

     Writing output data file espresso.save

     init_run     :      5.91s CPU      5.93s WALL (       1 calls)
     electrons    :     88.34s CPU    105.39s WALL (       1 calls)

     Called by init_run:
     wfcinit      :      2.42s CPU      2.82s WALL (       1 calls)
     wfcinit:atom :      0.03s CPU      0.04s WALL (      24 calls)
     wfcinit:wfcr :      2.28s CPU      2.66s WALL (      24 calls)
     potinit      :      1.47s CPU      1.08s WALL (       1 calls)

     Called by electrons:
     c_bands      :     64.81s CPU     84.16s WALL (      15 calls)
     sum_band     :     14.98s CPU     17.07s WALL (      15 calls)
     v_of_rho     :      0.22s CPU      0.21s WALL (      16 calls)
     v_h          :      0.00s CPU      0.02s WALL (      16 calls)
     v_xc         :      0.22s CPU      0.18s WALL (      16 calls)
     newd         :      1.64s CPU      1.29s WALL (      16 calls)
     PAW_pot      :      7.20s CPU      2.70s WALL (      16 calls)
     mix_rho      :      0.08s CPU      0.11s WALL (      15 calls)

     Called by c_bands:
     init_us_2    :      0.47s CPU      1.01s WALL (     744 calls)
     cegterg      :     63.59s CPU     82.67s WALL (     360 calls)

     Called by sum_band:
     sum_band:bec :      0.20s CPU      0.23s WALL (     360 calls)
     addusdens    :      3.89s CPU      3.04s WALL (      15 calls)

     Called by *egterg:
     h_psi        :     44.00s CPU     56.01s WALL (    1003 calls)
     s_psi        :      2.05s CPU      1.26s WALL (    1003 calls)
     g_psi        :      0.09s CPU      0.07s WALL (     619 calls)
     cdiaghg      :     12.00s CPU     22.34s WALL (     979 calls)
     cegterg:over :      2.19s CPU      1.74s WALL (     619 calls)
     cegterg:upda :      1.47s CPU      0.80s WALL (     619 calls)
     cegterg:last :      1.44s CPU      0.56s WALL (     360 calls)

     Called by h_psi:
     h_psi:pot    :     43.92s CPU     55.90s WALL (    1003 calls)
     h_psi:calbec :      2.50s CPU      1.61s WALL (    1003 calls)
     vloc_psi     :     39.25s CPU     53.10s WALL (    1003 calls)
     add_vuspsi   :      2.17s CPU      1.18s WALL (    1003 calls)

     General routines
     calbec       :      3.75s CPU      2.29s WALL (    1363 calls)
     fft          :      0.19s CPU      0.26s WALL (     262 calls)
     ffts         :      0.02s CPU      0.04s WALL (      62 calls)
     fftw         :     40.45s CPU     55.17s WALL (  103676 calls)
     interpolate  :      0.12s CPU      0.12s WALL (      62 calls)

     Parallel routines
     fft_scatter  :      5.45s CPU      7.89s WALL (  104000 calls)

     PAW routines
     PAW_pot      :      7.20s CPU      2.70s WALL (      16 calls)
     PAW_symme    :      0.02s CPU      0.01s WALL (      31 calls)

     PWSCF        :  1m35.12s CPU     1m52.44s WALL


   This run was terminated on:  18:52:32   9Jan2024            

=------------------------------------------------------------------------------=
   JOB DONE.
=------------------------------------------------------------------------------=
