
     Program PWSCF v.6.1 starts on 10Jan2024 at  3:20:31 

     This program is part of the open-source Quantum ESPRESSO suite
     for quantum simulation of materials; please cite
         "P. Giannozzi et al., J. Phys.:Condens. Matter 21 395502 (2009);
          URL http://www.quantum-espresso.org", 
     in publications or presentations arising from this work. More details at
     http://www.quantum-espresso.org/quote

     Parallel version (MPI & OpenMP), running on      50 processor cores
     Number of MPI processes:                 5
     Threads/MPI process:                    10
     R & G space division:  proc/nbgrp/npool/nimage =       5
     Reading input from espresso.in

     Current dimensions of program PWSCF are:
     Max number of different atomic species (ntypx) = 10
     Max number of k-points (npk) =  40000
     Max angular momentum in pseudopotentials (lmaxx) =  3
               file Fe.pbe-spn-kjpaw_psl.0.2.1.UPF: wavefunction(s)  3D renormalized
               file O.pbe-nl-kjpaw_psl.1.0.0.UPF: wavefunction(s)  2S 2P renormalized

     Subspace diagonalization in iterative solution of the eigenvalue problem:
     a serial algorithm will be used

     Found symmetry operation: I + (  0.5000 -0.5000  0.0000)
     This is a supercell, fractional translations are disabled

     Parallelization info
     --------------------
     sticks:   dense  smooth     PW     G-vecs:    dense   smooth      PW
     Min         301     134     43                10826     3203     577
     Max         302     135     44                10827     3205     580
     Sum        1509     673    217                54131    16021    2893


     Title: 
     pbe(SCF)                                                                   


     bravais-lattice index     =          -12
     lattice parameter (alat)  =      10.1022  a.u.
     unit-cell volume          =     573.5565 (a.u.)^3
     number of atoms/cell      =            8
     number of atomic types    =            2
     number of electrons       =        88.00
     number of Kohn-Sham states=           53
     kinetic-energy cutoff     =      35.0000  Ry
     charge density cutoff     =     315.0000  Ry
     convergence threshold     =      1.0E-06
     mixing beta               =       0.4000
     number of iterations used =            8  plain     mixing
     Exchange-correlation      =  SLA  PW   PBX  PBC ( 1  4  3  4 0 0)

     celldm(1)=  10.102230  celldm(2)=   0.590841  celldm(3)=   0.994962
     celldm(4)=   0.000000  celldm(5)=  -0.323174  celldm(6)=   0.000000

     crystal axes: (cart. coord. in units of alat)
               a(1) = (   1.000000   0.000000   0.000000 )  
               a(2) = (   0.000000   0.590841   0.000000 )  
               a(3) = (  -0.321546   0.000000   0.941572 )  

     reciprocal axes: (cart. coord. in units 2 pi/alat)
               b(1) = (  1.000000 -0.000000  0.341499 )  
               b(2) = (  0.000000  1.692502 -0.000000 )  
               b(3) = (  0.000000  0.000000  1.062053 )  


     PseudoPot. # 1 for Fe read from file:
     C:\Users\didar\.burai\.pseudopot/Fe.pbe-spn-kjpaw_psl.0.2.1.UPF
     MD5 check sum: e86618425769142926afa95317d90200
     Pseudo is Projector augmented-wave + core cor, Zval = 16.0
     Generated using "atomic" code by A. Dal Corso  v.5.0.99 svn rev. 10869
     Shape of augmentation charge: PSQ
     Using radial grid of 1191 points,  6 beta functions with: 
                l(1) =   0
                l(2) =   0
                l(3) =   1
                l(4) =   1
                l(5) =   2
                l(6) =   2
     Q(r) pseudized with 0 coefficients 


     PseudoPot. # 2 for  O read from file:
     C:\Users\didar\.burai\.pseudopot/O.pbe-nl-kjpaw_psl.1.0.0.UPF
     MD5 check sum: 492e7797a1e712effc24c868d1774817
     Pseudo is Projector augmented-wave + core cor, Zval =  6.0
     Generated using "atomic" code by A. Dal Corso  v.5.1.2
     Shape of augmentation charge: PSQ
     Using radial grid of 1095 points,  4 beta functions with: 
                l(1) =   0
                l(2) =   0
                l(3) =   1
                l(4) =   1
     Q(r) pseudized with 0 coefficients 


     atomic species   valence    mass     pseudopotential
        Fe            16.00    55.84500     Fe( 1.00)
        O              6.00    15.99940      O( 1.00)

     Starting magnetic structure 
     atomic species   magnetization
        Fe           0.200
        O            0.000

      4 Sym. Ops., with inversion, found



   Cartesian axes

     site n.     atom                  positions (alat units)
         1           Fe  tau(   1) = (   0.0000000   0.0000000   0.0000000  )
         2           Fe  tau(   2) = (   0.3392292   0.0000000   0.4707874  )
         3           Fe  tau(   3) = (   0.4999998   0.2954206   0.0000000  )
         4           Fe  tau(   4) = (  -0.1607707   0.2954206   0.4707874  )
         5           O   tau(   5) = (   0.6897287   0.0000000   0.2369702  )
         6           O   tau(   6) = (  -0.0112704   0.0000000   0.7046043  )
         7           O   tau(   7) = (   0.1897289   0.2954206   0.2369702  )
         8           O   tau(   8) = (   0.4887294   0.2954206   0.7046043  )

     number of k points=    12  Marzari-Vanderbilt smearing, width (Ry)=  0.0100
                       cart. coord. in units 2pi/alat
        k(    1) = (   0.0000000   0.0000000   0.0000000), wk =   0.0625000
        k(    2) = (   0.0000000   0.0000000  -0.5310266), wk =   0.0625000
        k(    3) = (   0.0000000   0.4231256   0.0000000), wk =   0.1250000
        k(    4) = (   0.0000000   0.4231256  -0.5310266), wk =   0.1250000
        k(    5) = (   0.0000000  -0.8462511   0.0000000), wk =   0.0625000
        k(    6) = (   0.0000000  -0.8462511  -0.5310266), wk =   0.0625000
        k(    7) = (  -0.5000000   0.0000000  -0.1707495), wk =   0.0625000
        k(    8) = (  -0.5000000   0.0000000  -0.7017761), wk =   0.0625000
        k(    9) = (  -0.5000000   0.4231256  -0.1707495), wk =   0.1250000
        k(   10) = (  -0.5000000   0.4231256  -0.7017761), wk =   0.1250000
        k(   11) = (  -0.5000000  -0.8462511  -0.1707495), wk =   0.0625000
        k(   12) = (  -0.5000000  -0.8462511  -0.7017761), wk =   0.0625000

     Dense  grid:    54131 G-vectors     FFT dimensions: (  60,  36,  60)

     Smooth grid:    16021 G-vectors     FFT dimensions: (  40,  24,  40)

     Estimated max dynamical RAM per process >      23.31MB

     Estimated total allocated dynamical RAM >     116.55MB
     Generating pointlists ...
     new r_m :   0.1610 (alat units)  1.6269 (a.u.) for type    1
     new r_m :   0.1610 (alat units)  1.6269 (a.u.) for type    2

     Check: negative/imaginary core charge=   -0.000227    0.000000

     Initial potential from superposition of free atoms

     starting charge   87.99824, renormalised to   88.00000
     Starting wfc are   68 randomized atomic wfcs
     Checking if some PAW data can be deallocated... 

     total cpu time spent up to now is        7.3 secs

     Self-consistent Calculation

     iteration #  1     ecut=    35.00 Ry     beta=0.40
     Davidson diagonalization with overlap
     ethr =  1.00E-02,  avg # of iterations =  2.0

     negative rho (up, down):  0.000E+00 5.097E-04

     total cpu time spent up to now is       15.5 secs

     total energy              =   -1482.54460717 Ry
     Harris-Foulkes estimate   =   -1483.16938386 Ry
     estimated scf accuracy    <       1.45949013 Ry

     total magnetization       =    16.10 Bohr mag/cell
     absolute magnetization    =    16.10 Bohr mag/cell

     iteration #  2     ecut=    35.00 Ry     beta=0.40
     Davidson diagonalization with overlap
     ethr =  1.66E-03,  avg # of iterations =  2.2

     negative rho (up, down):  0.000E+00 6.642E-04

     total cpu time spent up to now is       24.6 secs

     total energy              =   -1482.68653869 Ry
     Harris-Foulkes estimate   =   -1483.14026137 Ry
     estimated scf accuracy    <       1.43389355 Ry

     total magnetization       =    12.99 Bohr mag/cell
     absolute magnetization    =    12.99 Bohr mag/cell

     iteration #  3     ecut=    35.00 Ry     beta=0.40
     Davidson diagonalization with overlap
     ethr =  1.63E-03,  avg # of iterations =  2.0

     negative rho (up, down):  0.000E+00 9.027E-04

     total cpu time spent up to now is       33.7 secs

     total energy              =   -1482.97502325 Ry
     Harris-Foulkes estimate   =   -1483.02186728 Ry
     estimated scf accuracy    <       0.31851472 Ry

     total magnetization       =    16.04 Bohr mag/cell
     absolute magnetization    =    16.04 Bohr mag/cell

     iteration #  4     ecut=    35.00 Ry     beta=0.40
     Davidson diagonalization with overlap
     ethr =  3.62E-04,  avg # of iterations =  2.0

     negative rho (up, down):  0.000E+00 1.195E-03

     total cpu time spent up to now is       41.7 secs

     total energy              =   -1482.93652688 Ry
     Harris-Foulkes estimate   =   -1483.09365076 Ry
     estimated scf accuracy    <       2.33192045 Ry

     total magnetization       =    15.39 Bohr mag/cell
     absolute magnetization    =    15.39 Bohr mag/cell

     iteration #  5     ecut=    35.00 Ry     beta=0.40
     Davidson diagonalization with overlap
     ethr =  3.62E-04,  avg # of iterations =  1.1

     negative rho (up, down):  0.000E+00 1.210E-03

     total cpu time spent up to now is       49.1 secs

     total energy              =   -1482.99863985 Ry
     Harris-Foulkes estimate   =   -1483.03194446 Ry
     estimated scf accuracy    <       0.60739477 Ry

     total magnetization       =    16.05 Bohr mag/cell
     absolute magnetization    =    16.05 Bohr mag/cell

     iteration #  6     ecut=    35.00 Ry     beta=0.40
     Davidson diagonalization with overlap
     ethr =  3.62E-04,  avg # of iterations =  1.0

     negative rho (up, down):  0.000E+00 1.882E-03

     total cpu time spent up to now is       56.5 secs

     total energy              =   -1483.02936762 Ry
     Harris-Foulkes estimate   =   -1483.01893952 Ry
     estimated scf accuracy    <       0.05798275 Ry

     total magnetization       =    16.05 Bohr mag/cell
     absolute magnetization    =    16.05 Bohr mag/cell

     iteration #  7     ecut=    35.00 Ry     beta=0.40
     Davidson diagonalization with overlap
     ethr =  6.59E-05,  avg # of iterations =  2.0

     negative rho (up, down):  0.000E+00 2.278E-03

     total cpu time spent up to now is       64.6 secs

     total energy              =   -1483.01801065 Ry
     Harris-Foulkes estimate   =   -1483.05513140 Ry
     estimated scf accuracy    <       0.64219952 Ry

     total magnetization       =    16.02 Bohr mag/cell
     absolute magnetization    =    16.04 Bohr mag/cell

     iteration #  8     ecut=    35.00 Ry     beta=0.40
     Davidson diagonalization with overlap
     ethr =  6.59E-05,  avg # of iterations =  1.9

     negative rho (up, down):  0.000E+00 2.284E-03

     total cpu time spent up to now is       72.3 secs

     total energy              =   -1483.03799841 Ry
     Harris-Foulkes estimate   =   -1483.03777485 Ry
     estimated scf accuracy    <       0.01062671 Ry

     total magnetization       =    16.02 Bohr mag/cell
     absolute magnetization    =    16.05 Bohr mag/cell

     iteration #  9     ecut=    35.00 Ry     beta=0.40
     Davidson diagonalization with overlap
     ethr =  1.21E-05,  avg # of iterations =  2.4

     negative rho (up, down):  0.000E+00 2.212E-03

     total cpu time spent up to now is       80.4 secs

     total energy              =   -1483.03951328 Ry
     Harris-Foulkes estimate   =   -1483.03898693 Ry
     estimated scf accuracy    <       0.00186799 Ry

     total magnetization       =    16.00 Bohr mag/cell
     absolute magnetization    =    16.04 Bohr mag/cell

     iteration # 10     ecut=    35.00 Ry     beta=0.40
     Davidson diagonalization with overlap
     ethr =  2.12E-06,  avg # of iterations =  2.7

     negative rho (up, down):  0.000E+00 2.226E-03

     total cpu time spent up to now is       89.6 secs

     total energy              =   -1483.03988063 Ry
     Harris-Foulkes estimate   =   -1483.03982578 Ry
     estimated scf accuracy    <       0.00206264 Ry

     total magnetization       =    16.00 Bohr mag/cell
     absolute magnetization    =    16.05 Bohr mag/cell

     iteration # 11     ecut=    35.00 Ry     beta=0.40
     Davidson diagonalization with overlap
     ethr =  2.12E-06,  avg # of iterations =  1.8

     negative rho (up, down):  0.000E+00 2.226E-03

     total cpu time spent up to now is       97.1 secs

     total energy              =   -1483.04010870 Ry
     Harris-Foulkes estimate   =   -1483.04008886 Ry
     estimated scf accuracy    <       0.00037902 Ry

     total magnetization       =    16.00 Bohr mag/cell
     absolute magnetization    =    16.05 Bohr mag/cell

     iteration # 12     ecut=    35.00 Ry     beta=0.40
     Davidson diagonalization with overlap
     ethr =  4.31E-07,  avg # of iterations =  1.8

     negative rho (up, down):  0.000E+00 2.213E-03

     total cpu time spent up to now is      104.7 secs

     total energy              =   -1483.04029417 Ry
     Harris-Foulkes estimate   =   -1483.04016103 Ry
     estimated scf accuracy    <       0.00007920 Ry

     total magnetization       =    16.00 Bohr mag/cell
     absolute magnetization    =    16.06 Bohr mag/cell

     iteration # 13     ecut=    35.00 Ry     beta=0.40
     Davidson diagonalization with overlap
     ethr =  9.00E-08,  avg # of iterations =  2.3

     negative rho (up, down):  0.000E+00 2.211E-03

     total cpu time spent up to now is      112.6 secs

     total energy              =   -1483.04020638 Ry
     Harris-Foulkes estimate   =   -1483.04030595 Ry
     estimated scf accuracy    <       0.00002732 Ry

     total magnetization       =    16.00 Bohr mag/cell
     absolute magnetization    =    16.06 Bohr mag/cell

     iteration # 14     ecut=    35.00 Ry     beta=0.40
     Davidson diagonalization with overlap
     ethr =  3.10E-08,  avg # of iterations =  2.6

     negative rho (up, down):  0.000E+00 2.217E-03

     total cpu time spent up to now is      122.2 secs

     total energy              =   -1483.04040465 Ry
     Harris-Foulkes estimate   =   -1483.04023718 Ry
     estimated scf accuracy    <       0.00000529 Ry

     total magnetization       =    16.00 Bohr mag/cell
     absolute magnetization    =    16.06 Bohr mag/cell

     iteration # 15     ecut=    35.00 Ry     beta=0.40
     Davidson diagonalization with overlap
     ethr =  6.01E-09,  avg # of iterations =  2.2

     negative rho (up, down):  0.000E+00 2.217E-03

     total cpu time spent up to now is      131.6 secs

     total energy              =   -1483.04043584 Ry
     Harris-Foulkes estimate   =   -1483.04040737 Ry
     estimated scf accuracy    <       0.00001420 Ry

     total magnetization       =    16.00 Bohr mag/cell
     absolute magnetization    =    16.06 Bohr mag/cell

     iteration # 16     ecut=    35.00 Ry     beta=0.40
     Davidson diagonalization with overlap
     ethr =  6.01E-09,  avg # of iterations =  1.1

     negative rho (up, down):  0.000E+00 2.217E-03

     total cpu time spent up to now is      138.6 secs

     total energy              =   -1483.04044375 Ry
     Harris-Foulkes estimate   =   -1483.04043645 Ry
     estimated scf accuracy    <       0.00002295 Ry

     total magnetization       =    16.00 Bohr mag/cell
     absolute magnetization    =    16.06 Bohr mag/cell

     iteration # 17     ecut=    35.00 Ry     beta=0.40
     Davidson diagonalization with overlap
     ethr =  6.01E-09,  avg # of iterations =  1.0

     negative rho (up, down):  0.000E+00 2.214E-03

     total cpu time spent up to now is      145.6 secs

     total energy              =   -1483.04044862 Ry
     Harris-Foulkes estimate   =   -1483.04044392 Ry
     estimated scf accuracy    <       0.00002406 Ry

     total magnetization       =    16.00 Bohr mag/cell
     absolute magnetization    =    16.06 Bohr mag/cell

     iteration # 18     ecut=    35.00 Ry     beta=0.40
     Davidson diagonalization with overlap
     ethr =  6.01E-09,  avg # of iterations =  1.9

     negative rho (up, down):  0.000E+00 2.214E-03

     total cpu time spent up to now is      153.4 secs

     total energy              =   -1483.04045159 Ry
     Harris-Foulkes estimate   =   -1483.04045051 Ry
     estimated scf accuracy    <       0.00001626 Ry

     total magnetization       =    16.00 Bohr mag/cell
     absolute magnetization    =    16.06 Bohr mag/cell

     iteration # 19     ecut=    35.00 Ry     beta=0.40
     Davidson diagonalization with overlap
     ethr =  6.01E-09,  avg # of iterations =  1.0

     negative rho (up, down):  0.000E+00 2.214E-03

     total cpu time spent up to now is      160.4 secs

     total energy              =   -1483.04043509 Ry
     Harris-Foulkes estimate   =   -1483.04045167 Ry
     estimated scf accuracy    <       0.00001794 Ry

     total magnetization       =    16.00 Bohr mag/cell
     absolute magnetization    =    16.06 Bohr mag/cell

     iteration # 20     ecut=    35.00 Ry     beta=0.40
     Davidson diagonalization with overlap
     ethr =  6.01E-09,  avg # of iterations =  1.0

     negative rho (up, down):  0.000E+00 2.214E-03

     total cpu time spent up to now is      167.4 secs

     total energy              =   -1483.04043529 Ry
     Harris-Foulkes estimate   =   -1483.04043555 Ry
     estimated scf accuracy    <       0.00002266 Ry

     total magnetization       =    16.00 Bohr mag/cell
     absolute magnetization    =    16.06 Bohr mag/cell

     iteration # 21     ecut=    35.00 Ry     beta=0.40
     Davidson diagonalization with overlap
     ethr =  6.01E-09,  avg # of iterations =  1.0

     negative rho (up, down):  0.000E+00 2.214E-03

     total cpu time spent up to now is      174.4 secs

     total energy              =   -1483.04042449 Ry
     Harris-Foulkes estimate   =   -1483.04043532 Ry
     estimated scf accuracy    <       0.00002166 Ry

     total magnetization       =    16.00 Bohr mag/cell
     absolute magnetization    =    16.06 Bohr mag/cell

     iteration # 22     ecut=    35.00 Ry     beta=0.40
     Davidson diagonalization with overlap
     ethr =  6.01E-09,  avg # of iterations =  1.0

     negative rho (up, down):  0.000E+00 2.214E-03

     total cpu time spent up to now is      181.3 secs

     total energy              =   -1483.04038987 Ry
     Harris-Foulkes estimate   =   -1483.04042459 Ry
     estimated scf accuracy    <       0.00002527 Ry

     total magnetization       =    16.00 Bohr mag/cell
     absolute magnetization    =    16.06 Bohr mag/cell

     iteration # 23     ecut=    35.00 Ry     beta=0.40
     Davidson diagonalization with overlap
     ethr =  6.01E-09,  avg # of iterations =  1.6

     negative rho (up, down):  0.000E+00 2.214E-03

     total cpu time spent up to now is      188.7 secs

     total energy              =   -1483.04044095 Ry
     Harris-Foulkes estimate   =   -1483.04039089 Ry
     estimated scf accuracy    <       0.00003665 Ry

     total magnetization       =    16.00 Bohr mag/cell
     absolute magnetization    =    16.06 Bohr mag/cell

     iteration # 24     ecut=    35.00 Ry     beta=0.40
     Davidson diagonalization with overlap
     ethr =  6.01E-09,  avg # of iterations =  2.0

     negative rho (up, down):  0.000E+00 2.214E-03

     total cpu time spent up to now is      196.8 secs

     total energy              =   -1483.04041438 Ry
     Harris-Foulkes estimate   =   -1483.04044370 Ry
     estimated scf accuracy    <       0.00001930 Ry

     total magnetization       =    16.00 Bohr mag/cell
     absolute magnetization    =    16.06 Bohr mag/cell

     iteration # 25     ecut=    35.00 Ry     beta=0.40
     Davidson diagonalization with overlap
     ethr =  6.01E-09,  avg # of iterations =  2.8

     negative rho (up, down):  0.000E+00 2.214E-03

     Magnetic moment per site:
     atom:    1    charge:   13.4166    magn:    3.3746    constr:    0.0000
     atom:    2    charge:   13.4112    magn:    3.3925    constr:    0.0000
     atom:    3    charge:   13.4167    magn:    3.3745    constr:    0.0000
     atom:    4    charge:   13.4120    magn:    3.3917    constr:    0.0000
     atom:    5    charge:    5.6582    magn:    0.3510    constr:    0.0000
     atom:    6    charge:    5.6582    magn:    0.3510    constr:    0.0000
     atom:    7    charge:    5.6581    magn:    0.3510    constr:    0.0000
     atom:    8    charge:    5.6581    magn:    0.3510    constr:    0.0000

     total cpu time spent up to now is      206.8 secs

     End of self-consistent calculation

 ------ SPIN UP ------------


          k = 0.0000 0.0000 0.0000 (  2005 PWs)   bands (ev):

   -76.9371 -76.9326 -76.8910 -76.8871 -42.9728 -42.9431 -42.8229 -42.8096
   -42.7464 -42.7083 -42.6065 -42.5808 -42.5349 -42.5342 -42.5275 -42.4966
    -6.9040  -5.8814  -5.7851  -5.7741   5.1280   5.1561   6.7961   6.8840
     6.8914   6.8978   6.9152   8.6847   8.7046   8.8832   9.2477   9.3544
     9.4365   9.4548   9.4770   9.7675   9.7777   9.8245   9.9198   9.9649
    10.0132  10.1709  10.1738  10.1973  10.2500  10.2989  10.6959  10.7788
    12.6379  12.6727  12.6734  12.7515  13.4334

          k = 0.0000 0.0000-0.5310 (  2014 PWs)   bands (ev):

   -76.9362 -76.9338 -76.8909 -76.8884 -42.9505 -42.9473 -42.8274 -42.8251
   -42.7375 -42.7185 -42.5927 -42.5898 -42.5463 -42.5456 -42.5346 -42.5086
    -6.3883  -6.3662  -5.9046  -5.7662   5.9724   6.2757   6.8618   6.8761
     6.9843   7.3197   7.4009   7.5433   7.6063   7.6779   7.7586   7.7603
     9.5997   9.6260   9.6455   9.6956   9.7486   9.7713  10.0024  10.1629
    10.2072  10.2992  10.4067  10.5941  11.3252  11.3609  11.4901  11.5750
    11.5782  11.7008  11.9438  11.9709  16.1818

          k = 0.0000 0.4231 0.0000 (  2009 PWs)   bands (ev):

   -76.9350 -76.9333 -76.8895 -76.8879 -42.9553 -42.9475 -42.8284 -42.8192
   -42.7290 -42.7177 -42.5973 -42.5905 -42.5476 -42.5366 -42.5206 -42.5126
    -6.5642  -5.8150  -5.7723  -5.7666   5.7945   5.8225   6.8448   6.8770
     6.9859   6.9917   7.0452   7.0816   7.4453   7.7931   7.9748   8.3972
     9.5166   9.5732   9.6840   9.8363   9.8653  10.1534  10.1602  10.2282
    10.3397  10.3684  10.4347  10.5603  10.6357  10.7152  11.3273  11.3965
    11.5477  11.7481  12.2148  12.2221  15.5248

          k = 0.0000 0.4231-0.5310 (  2008 PWs)   bands (ev):

   -76.9352 -76.9335 -76.8898 -76.8881 -42.9535 -42.9515 -42.8223 -42.8203
   -42.7313 -42.7217 -42.5944 -42.5926 -42.5411 -42.5387 -42.5235 -42.5140
    -6.1873  -6.1780  -5.8319  -5.7599   6.1272   6.2753   6.3603   6.4049
     6.9906   7.0898   7.3345   7.4105   7.4231   7.7086   7.9082   8.1468
     9.4841   9.6724   9.7999   9.8175   9.9111   9.9137  10.0299  10.1876
    10.4541  10.5083  10.5615  10.6182  10.6265  10.6806  10.7037  10.8360
    11.7485  11.7589  12.2412  12.2603  17.5096

          k = 0.0000-0.8463 0.0000 (  2008 PWs)   bands (ev):

   -76.9340 -76.9336 -76.8885 -76.8885 -42.9619 -42.9613 -42.8197 -42.8183
   -42.7227 -42.7226 -42.6051 -42.6047 -42.5369 -42.5366 -42.5175 -42.5170
    -5.9774  -5.9772  -5.7624  -5.7622   5.9850   5.9852   6.8680   6.8681
     7.0499   7.0499   7.0929   7.0932   7.3053   7.3055   7.4595   7.4599
     9.8716   9.8719   9.9207   9.9213  10.0429  10.0432  10.2489  10.2492
    10.3015  10.3019  10.3920  10.3924  10.6728  10.6733  10.7916  10.7919
    11.4395  11.4396  12.4908  12.4910  18.8163

          k = 0.0000-0.8463-0.5310 (  2004 PWs)   bands (ev):

   -76.9338 -76.9335 -76.8883 -76.8883 -42.9533 -42.9527 -42.8201 -42.8188
   -42.7297 -42.7296 -42.5898 -42.5895 -42.5376 -42.5374 -42.5184 -42.5179
    -5.8774  -5.8772  -5.8550  -5.8548   6.0407   6.0408   6.2378   6.2379
     7.0304   7.0305   7.2236   7.2238   7.5027   7.5029   7.6984   7.6984
     9.5510   9.5515   9.5990   9.5990  10.0585  10.0593  10.2313  10.2320
    10.3952  10.3956  10.6748  10.6752  11.1860  11.1861  11.4180  11.4182
    11.4651  11.4655  11.8213  11.8214  19.4594

          k =-0.5000 0.0000-0.1707 (  2012 PWs)   bands (ev):

   -76.9352 -76.9348 -76.8896 -76.8895 -42.9492 -42.9486 -42.8270 -42.8257
   -42.7262 -42.7261 -42.5913 -42.5908 -42.5461 -42.5458 -42.5179 -42.5175
    -6.3953  -6.3951  -5.8153  -5.8152   6.1030   6.1032   6.8591   6.8592
     7.1702   7.1702   7.3380   7.3383   7.7387   7.7388   7.8322   7.8323
     9.5224   9.5231   9.6091   9.6092   9.9408   9.9410  10.1035  10.1039
    10.1520  10.1522  10.5397  10.5400  11.3170  11.3171  11.3691  11.3692
    11.8580  11.8581  11.9157  11.9160  16.1564

          k =-0.5000 0.0000-0.7018 (  2006 PWs)   bands (ev):

   -76.9349 -76.9345 -76.8893 -76.8893 -42.9476 -42.9470 -42.8199 -42.8185
   -42.7218 -42.7217 -42.5904 -42.5900 -42.5382 -42.5380 -42.5168 -42.5163
    -6.2863  -6.2861  -5.9314  -5.9312   6.0024   6.0027   6.3783   6.3784
     7.0708   7.0710   7.5063   7.5064   8.4792   8.4792   8.6508   8.6511
     9.0873   9.0878   9.6433   9.6435   9.7974   9.7980  10.0477  10.0479
    10.6015  10.6018  10.6026  10.6027  10.7256  10.7262  10.8184  10.8185
    10.9207  10.9208  12.5509  12.5512  17.2460

          k =-0.5000 0.4231-0.1707 (  2006 PWs)   bands (ev):

   -76.9345 -76.9341 -76.8889 -76.8889 -42.9475 -42.9469 -42.8217 -42.8203
   -42.7254 -42.7252 -42.5915 -42.5910 -42.5399 -42.5397 -42.5208 -42.5204
    -6.1971  -6.1970  -5.7799  -5.7798   6.2416   6.2416   6.3348   6.3349
     7.1634   7.1636   7.1883   7.1883   7.5744   7.5745   8.0871   8.0873
     9.5799   9.5803   9.8114   9.8117   9.9373   9.9377  10.0357  10.0357
    10.5022  10.5025  10.5787  10.5789  10.6700  10.6700  10.7886  10.7887
    11.7602  11.7603  12.2439  12.2440  17.5267

          k =-0.5000 0.4231-0.7018 (  2002 PWs)   bands (ev):

   -76.9345 -76.9341 -76.8889 -76.8889 -42.9524 -42.9518 -42.8235 -42.8221
   -42.7160 -42.7159 -42.5955 -42.5951 -42.5414 -42.5412 -42.5113 -42.5109
    -6.0665  -6.0663  -5.9127  -5.9125   5.8961   5.8962   6.3554   6.3555
     7.2111   7.2113   7.5276   7.5278   7.7275   7.7275   7.9254   7.9256
     9.4673   9.4675   9.6847   9.6851   9.9784   9.9785  10.1116  10.1117
    10.3847  10.3850  10.5077  10.5082  10.6703  10.6703  11.3176  11.3177
    11.7711  11.7715  12.1555  12.1556  17.8479

          k =-0.5000-0.8463-0.1707 (  2004 PWs)   bands (ev):

   -76.9337 -76.9333 -76.8883 -76.8882 -42.9434 -42.9429 -42.8200 -42.8186
   -42.7282 -42.7280 -42.5888 -42.5884 -42.5379 -42.5377 -42.5256 -42.5252
    -5.9115  -5.9113  -5.8206  -5.8204   6.0654   6.0655   6.2361   6.2362
     7.0397   7.0398   7.2353   7.2356   7.4563   7.4563   7.6690   7.6691
     9.6014   9.6015   9.6240   9.6248  10.0106  10.0113  10.1192  10.1193
    10.4772  10.4776  10.6968  10.6974  11.2481  11.2481  11.3802  11.3803
    11.5545  11.5547  11.7215  11.7216  19.3328

          k =-0.5000-0.8463-0.7018 (  1968 PWs)   bands (ev):

   -76.9330 -76.9326 -76.8874 -76.8874 -42.9292 -42.9287 -42.8218 -42.8204
   -42.6997 -42.6995 -42.5735 -42.5731 -42.5386 -42.5384 -42.4936 -42.4932
    -5.8992  -5.8990  -5.8246  -5.8244   5.0939   5.0939   6.7420   6.7421
     6.8912   6.8913   7.0579   7.0582   8.5920   8.5925   8.8235   8.8238
     8.9233   8.9233   9.7482   9.7482   9.9473   9.9480  10.0605  10.0605
    10.1834  10.1835  10.2954  10.2961  10.4348  10.4351  10.7181  10.7185
    12.6205  12.6207  12.7590  12.7590  18.1549

 ------ SPIN DOWN ----------


          k = 0.0000 0.0000 0.0000 (  2005 PWs)   bands (ev):

   -72.7799 -72.7742 -72.7494 -72.7453 -38.7453 -38.7163 -38.7005 -38.6981
   -38.6895 -38.6863 -38.6678 -38.6456 -38.6369 -38.6161 -38.6139 -38.6017
    -6.3308  -5.2465  -5.1876  -5.1770   5.8961   5.9371   7.2620   8.4640
     8.4799   8.4948   8.4975   9.2750   9.4479  10.3454  10.3800  10.5169
    11.2440  12.4627  12.4667  12.4904  13.2899  13.4108  13.4348  13.4983
    13.5095  13.6679  13.6708  13.7940  13.8524  13.8698  14.0213  14.0370
    14.2039  15.8201  15.8272  15.8304  15.9418

          k = 0.0000 0.0000-0.5310 (  2014 PWs)   bands (ev):

   -72.7786 -72.7755 -72.7497 -72.7466 -38.7139 -38.7086 -38.6967 -38.6956
   -38.6948 -38.6824 -38.6775 -38.6626 -38.6403 -38.6345 -38.6325 -38.6156
    -5.8052  -5.7818  -5.2911  -5.1475   6.6999   7.0514   7.6938   7.7120
     8.0925   8.5578   8.7035   8.9862   9.1339   9.1668   9.2999   9.3037
    12.2803  12.7843  12.8150  12.8703  12.9473  13.0256  13.1665  13.2464
    13.5779  13.6473  13.7971  13.8002  14.6447  14.6635  14.7556  14.7711
    14.8366  14.8754  14.9120  14.9421  16.9633

          k = 0.0000 0.4231 0.0000 (  2009 PWs)   bands (ev):

   -72.7773 -72.7750 -72.7481 -72.7461 -38.7254 -38.7070 -38.7021 -38.6939
   -38.6846 -38.6825 -38.6699 -38.6697 -38.6390 -38.6260 -38.6257 -38.6197
    -5.9834  -5.1886  -5.1602  -5.1547   6.5705   6.6094   7.5430   7.7291
     8.1575   8.1877   8.2756   8.5107   8.6235   9.0823   9.5969   9.6296
    12.3495  12.6905  12.8759  12.9667  13.2966  13.3045  13.3726  13.3874
    13.5983  13.7375  13.7798  13.7883  13.7887  14.3659  14.6961  14.8588
    14.8604  14.9026  15.3160  15.4260  16.4441

          k = 0.0000 0.4231-0.5310 (  2008 PWs)   bands (ev):

   -72.7773 -72.7752 -72.7483 -72.7464 -38.7215 -38.7101 -38.6981 -38.6952
   -38.6932 -38.6836 -38.6695 -38.6671 -38.6330 -38.6292 -38.6276 -38.6199
    -5.5908  -5.5850  -5.2161  -5.1373   6.9514   7.2427   7.2783   7.2941
     7.8403   8.0976   8.6464   8.6479   8.8603   9.0611   9.1480   9.2625
    12.5303  12.5440  12.8811  13.2257  13.2410  13.2565  13.2907  13.4833
    13.5702  13.6731  13.8079  13.8421  13.8467  13.9954  14.2693  14.3942
    14.8814  15.2506  15.3246  15.4094  18.4574

          k = 0.0000-0.8463 0.0000 (  2008 PWs)   bands (ev):

   -72.7757 -72.7755 -72.7466 -72.7466 -38.7221 -38.7220 -38.6964 -38.6959
   -38.6878 -38.6877 -38.6764 -38.6763 -38.6321 -38.6321 -38.6234 -38.6233
    -5.3747  -5.3744  -5.1353  -5.1350   6.8672   6.8672   7.8600   7.8602
     7.8868   7.8870   8.0725   8.0727   8.4161   8.4162   8.8585   8.8587
    13.0379  13.0394  13.2850  13.2854  13.2881  13.2883  13.3965  13.3967
    13.4977  13.4978  13.7414  13.7414  14.1734  14.1735  14.1839  14.1845
    14.9063  14.9066  15.7143  15.7145  19.6296

          k = 0.0000-0.8463-0.5310 (  2004 PWs)   bands (ev):

   -72.7755 -72.7753 -72.7465 -72.7465 -38.7179 -38.7177 -38.6975 -38.6974
   -38.6963 -38.6958 -38.6602 -38.6600 -38.6326 -38.6325 -38.6207 -38.6206
    -5.2591  -5.2589  -5.2437  -5.2434   6.8095   6.8095   6.9597   6.9597
     8.1853   8.1855   8.3627   8.3628   8.8910   8.8911   9.0191   9.0193
    12.5182  12.5191  12.6546  12.6546  13.4070  13.4072  13.6448  13.6449
    13.7505  13.7507  13.7936  13.7944  14.7809  14.7811  14.8265  14.8273
    14.8336  14.8341  14.9295  14.9296  20.3037

          k =-0.5000 0.0000-0.1707 (  2012 PWs)   bands (ev):

   -72.7772 -72.7769 -72.7480 -72.7480 -38.7146 -38.7145 -38.6960 -38.6955
   -38.6871 -38.6870 -38.6698 -38.6696 -38.6334 -38.6333 -38.6219 -38.6217
    -5.8106  -5.8105  -5.2003  -5.2001   6.8593   6.8594   7.7200   7.7202
     8.2832   8.2832   8.7713   8.7715   9.2618   9.2619   9.3022   9.3023
    12.4484  12.4485  12.9673  12.9677  12.9964  12.9964  13.0790  13.0792
    13.7241  13.7243  13.7343  13.7349  14.7275  14.7278  14.7627  14.7628
    14.7840  14.7843  14.9857  14.9862  16.9455

          k =-0.5000 0.0000-0.7018 (  2006 PWs)   bands (ev):

   -72.7768 -72.7766 -72.7478 -72.7478 -38.7108 -38.7106 -38.6898 -38.6894
   -38.6829 -38.6828 -38.6693 -38.6692 -38.6267 -38.6266 -38.6226 -38.6224
    -5.6931  -5.6929  -5.3273  -5.3270   6.8888   6.8890   7.4137   7.4139
     8.4663   8.4665   8.6429   8.6431   9.5279   9.5282   9.6868   9.6870
    11.8363  11.8364  13.1724  13.1725  13.3489  13.3500  13.5793  13.5799
    13.6400  13.6403  13.6632  13.6632  13.7578  13.7580  13.9827  13.9829
    14.2411  14.2413  15.7828  15.7830  18.4331

          k =-0.5000 0.4231-0.1707 (  2006 PWs)   bands (ev):

   -72.7763 -72.7761 -72.7472 -72.7472 -38.7107 -38.7106 -38.6947 -38.6943
   -38.6833 -38.6833 -38.6719 -38.6718 -38.6319 -38.6319 -38.6252 -38.6251
    -5.6019  -5.6018  -5.1612  -5.1610   7.0958   7.0958   7.2842   7.2843
     7.9757   7.9757   8.5748   8.5748   9.0035   9.0036   9.2333   9.2334
    12.5154  12.5158  13.0087  13.0089  13.2419  13.2423  13.4901  13.4901
    13.5619  13.5620  13.7995  13.7997  13.9777  13.9781  14.3203  14.3207
    15.0540  15.0544  15.3909  15.3912  18.4897

          k =-0.5000 0.4231-0.7018 (  2002 PWs)   bands (ev):

   -72.7762 -72.7760 -72.7472 -72.7472 -38.7141 -38.7140 -38.6961 -38.6957
   -38.6818 -38.6817 -38.6699 -38.6698 -38.6328 -38.6327 -38.6174 -38.6173
    -5.4716  -5.4714  -5.2940  -5.2938   6.7362   6.7362   7.1074   7.1075
     8.6605   8.6606   8.8082   8.8084   8.9045   8.9046   9.1642   9.1643
    12.1833  12.1838  12.6549  12.6550  13.4899  13.4907  13.5921  13.5922
    13.6874  13.6876  13.8067  13.8070  14.1039  14.1039  14.8132  14.8132
    14.8463  14.8466  15.1566  15.1569  18.7022

          k =-0.5000-0.8463-0.1707 (  2004 PWs)   bands (ev):

   -72.7754 -72.7752 -72.7464 -72.7464 -38.7050 -38.7049 -38.6969 -38.6964
   -38.6849 -38.6849 -38.6699 -38.6698 -38.6326 -38.6325 -38.6309 -38.6308
    -5.2987  -5.2985  -5.2037  -5.2035   6.7885   6.7885   6.9992   6.9993
     8.1524   8.1526   8.3994   8.3996   8.8388   8.8389   9.0349   9.0351
    12.4716  12.4724  12.7407  12.7410  13.4470  13.4470  13.6324  13.6329
    13.7007  13.7009  13.8030  13.8031  14.7790  14.7796  14.8026  14.8028
    14.8537  14.8544  14.9165  14.9166  20.2477

          k =-0.5000-0.8463-0.7018 (  1968 PWs)   bands (ev):

   -72.7745 -72.7743 -72.7454 -72.7454 -38.7091 -38.7089 -38.6852 -38.6851
   -38.6623 -38.6623 -38.6541 -38.6540 -38.6300 -38.6299 -38.6010 -38.6009
    -5.2649  -5.2647  -5.2285  -5.2283   5.8672   5.8672   7.2139   7.2139
     8.4817   8.4818   8.6690   8.6692   9.3719   9.3721   9.4918   9.4918
    11.3475  11.3480  13.3167  13.3169  13.5090  13.5098  13.6224  13.6224
    13.7334  13.7335  13.8397  13.8399  14.0253  14.0255  14.2369  14.2372
    15.7530  15.7532  15.8298  15.8300  18.5202

     the Fermi energy is    13.1420 ev

!    total energy              =   -1483.04046568 Ry
     Harris-Foulkes estimate   =   -1483.04043080 Ry
     estimated scf accuracy    <       0.00000050 Ry

     total all-electron energy =    -10783.614190 Ry

     The total energy is the sum of the following terms:

     one-electron contribution =    -552.98930478 Ry
     hartree contribution      =     326.61120390 Ry
     xc contribution           =    -169.23020214 Ry
     ewald contribution        =    -744.67779107 Ry
     one-center paw contrib.   =    -342.75462835 Ry
     smearing contrib. (-TS)   =       0.00025675 Ry

     total magnetization       =    16.00 Bohr mag/cell
     absolute magnetization    =    16.06 Bohr mag/cell

     convergence has been achieved in  25 iterations

     Writing output data file espresso.save

     init_run     :      7.41s CPU      6.70s WALL (       1 calls)
     electrons    :    191.48s CPU    199.50s WALL (       1 calls)

     Called by init_run:
     wfcinit      :      2.53s CPU      2.93s WALL (       1 calls)
     potinit      :      2.81s CPU      1.55s WALL (       1 calls)

     Called by electrons:
     c_bands      :    118.58s CPU    152.07s WALL (      25 calls)
     sum_band     :     24.95s CPU     29.36s WALL (      25 calls)
     v_of_rho     :      2.70s CPU      1.54s WALL (      26 calls)
     newd         :      2.83s CPU      2.20s WALL (      26 calls)
     PAW_pot      :     44.09s CPU     14.67s WALL (      26 calls)
     mix_rho      :      0.08s CPU      0.19s WALL (      25 calls)

     Called by c_bands:
     init_us_2    :      0.88s CPU      1.70s WALL (    1224 calls)
     cegterg      :    116.69s CPU    149.51s WALL (     600 calls)

     Called by sum_band:
     sum_band:bec :      0.23s CPU      0.40s WALL (     600 calls)
     addusdens    :      6.00s CPU      5.27s WALL (      25 calls)

     Called by *egterg:
     h_psi        :     77.59s CPU     99.21s WALL (    1686 calls)
     s_psi        :      3.91s CPU      2.34s WALL (    1686 calls)
     g_psi        :      0.16s CPU      0.13s WALL (    1062 calls)
     cdiaghg      :     23.34s CPU     40.32s WALL (    1662 calls)

     Called by h_psi:
     h_psi:pot    :     77.42s CPU     98.99s WALL (    1686 calls)
     h_psi:calbec :      5.20s CPU      2.90s WALL (    1686 calls)
     vloc_psi     :     68.50s CPU     93.82s WALL (    1686 calls)
     add_vuspsi   :      3.72s CPU      2.26s WALL (    1686 calls)

     General routines
     calbec       :      7.25s CPU      4.11s WALL (    2286 calls)
     fft          :      1.00s CPU      0.89s WALL (     796 calls)
     ffts         :      0.05s CPU      0.08s WALL (     102 calls)
     fftw         :     71.70s CPU     97.07s WALL (  173580 calls)
     interpolate  :      0.23s CPU      0.19s WALL (     102 calls)

     Parallel routines
     fft_scatter  :     10.08s CPU     15.12s WALL (  174478 calls)

     PWSCF        :  3m19.67s CPU     3m27.26s WALL


   This run was terminated on:   3:23:58  10Jan2024            

=------------------------------------------------------------------------------=
   JOB DONE.
=------------------------------------------------------------------------------=
